# Initialisation file of the particles

900  atoms
499  bonds

6  atom types
1  bond types

0.0000   50.0000 xlo xhi
0.0000   50.0000 ylo yhi
0.0000   50.0000 zlo zhi

Atom Type Labels

1    A
2    U
3    M
4    Swi6
5    Swi6M
6    Epe1C

Bond Type Labels

1    Normal

Masses

1    1.00 
2    1.00 
3    1.00 
4    1.00 
5    1.00 
6    1.00 

Atoms

  1  1  U  5  5  5
  2  1  A  5  5.6  5
  3  1  A  5.6  5.6  5
  4  1  U  6.199999999999999  5.6  5
  5  1  A  6.199999999999999  6.199999999999999  5
  6  1  A  6.799999999999999  6.199999999999999  5
  7  1  U  6.799999999999999  6.199999999999999  5.6
  8  1  M  6.799999999999999  6.199999999999999  6.199999999999999
  9  1  M  7.399999999999999  6.199999999999999  6.199999999999999
  10  1  M  7.399999999999999  6.199999999999999  6.799999999999999
  11  1  U  7.399999999999999  6.199999999999999  7.399999999999999
  12  1  A  7.399999999999999  6.199999999999999  7.999999999999998
  13  1  M  7.399999999999999  6.199999999999999  8.599999999999998
  14  1  M  7.999999999999998  6.199999999999999  8.599999999999998
  15  1  A  8.599999999999998  6.199999999999999  8.599999999999998
  16  1  M  8.599999999999998  6.199999999999999  9.199999999999998
  17  1  M  9.199999999999998  6.199999999999999  9.199999999999998
  18  1  M  9.199999999999998  6.799999999999999  9.199999999999998
  19  1  M  9.199999999999998  7.399999999999999  9.199999999999998
  20  1  M  9.199999999999998  7.399999999999999  9.799999999999997
  21  1  U  9.199999999999998  7.399999999999999  10.399999999999997
  22  1  A  9.199999999999998  7.399999999999999  10.999999999999996
  23  1  A  9.199999999999998  7.999999999999998  10.999999999999996
  24  1  U  9.199999999999998  7.999999999999998  11.599999999999996
  25  1  A  9.199999999999998  8.599999999999998  11.599999999999996
  26  1  M  9.199999999999998  9.199999999999998  11.599999999999996
  27  1  A  9.199999999999998  9.799999999999997  11.599999999999996
  28  1  M  9.199999999999998  10.399999999999997  11.599999999999996
  29  1  M  9.799999999999997  10.399999999999997  11.599999999999996
  30  1  U  9.799999999999997  10.399999999999997  12.199999999999996
  31  1  M  9.799999999999997  10.999999999999996  12.199999999999996
  32  1  M  9.799999999999997  11.599999999999996  12.199999999999996
  33  1  U  9.799999999999997  12.199999999999996  12.199999999999996
  34  1  U  9.799999999999997  12.199999999999996  12.799999999999995
  35  1  A  9.799999999999997  12.199999999999996  13.399999999999995
  36  1  U  9.799999999999997  12.199999999999996  13.999999999999995
  37  1  U  9.799999999999997  12.799999999999995  13.999999999999995
  38  1  A  9.799999999999997  13.399999999999995  13.999999999999995
  39  1  A  10.399999999999997  13.399999999999995  13.999999999999995
  40  1  U  10.399999999999997  13.399999999999995  14.599999999999994
  41  1  M  10.399999999999997  13.999999999999995  14.599999999999994
  42  1  M  10.399999999999997  13.999999999999995  15.199999999999994
  43  1  M  10.999999999999996  13.999999999999995  15.199999999999994
  44  1  U  10.999999999999996  14.599999999999994  15.199999999999994
  45  1  A  10.999999999999996  14.599999999999994  15.799999999999994
  46  1  M  10.999999999999996  15.199999999999994  15.799999999999994
  47  1  M  10.999999999999996  15.799999999999994  15.799999999999994
  48  1  U  10.999999999999996  16.399999999999995  15.799999999999994
  49  1  A  10.999999999999996  16.399999999999995  16.399999999999995
  50  1  U  11.599999999999996  16.399999999999995  16.399999999999995
  51  1  M  11.599999999999996  16.999999999999996  16.399999999999995
  52  1  A  12.199999999999996  16.999999999999996  16.399999999999995
  53  1  U  12.799999999999995  16.999999999999996  16.399999999999995
  54  1  M  13.399999999999995  16.999999999999996  16.399999999999995
  55  1  A  13.999999999999995  16.999999999999996  16.399999999999995
  56  1  M  14.599999999999994  16.999999999999996  16.399999999999995
  57  1  M  15.199999999999994  16.999999999999996  16.399999999999995
  58  1  M  15.199999999999994  17.599999999999998  16.399999999999995
  59  1  U  15.199999999999994  18.2  16.399999999999995
  60  1  M  15.799999999999994  18.2  16.399999999999995
  61  1  M  15.799999999999994  18.8  16.399999999999995
  62  1  A  15.799999999999994  18.8  16.999999999999996
  63  1  M  15.799999999999994  18.8  17.599999999999998
  64  1  A  15.799999999999994  19.400000000000002  17.599999999999998
  65  1  A  16.399999999999995  19.400000000000002  17.599999999999998
  66  1  M  16.399999999999995  19.400000000000002  18.2
  67  1  U  16.399999999999995  19.400000000000002  18.8
  68  1  A  16.399999999999995  19.400000000000002  19.400000000000002
  69  1  M  16.399999999999995  19.400000000000002  20.000000000000004
  70  1  U  16.399999999999995  20.000000000000004  20.000000000000004
  71  1  A  16.999999999999996  20.000000000000004  20.000000000000004
  72  1  U  17.599999999999998  20.000000000000004  20.000000000000004
  73  1  U  17.599999999999998  20.000000000000004  20.600000000000005
  74  1  A  17.599999999999998  20.600000000000005  20.600000000000005
  75  1  A  17.599999999999998  21.200000000000006  20.600000000000005
  76  1  U  18.2  21.200000000000006  20.600000000000005
  77  1  A  18.2  21.800000000000008  20.600000000000005
  78  1  M  18.2  22.40000000000001  20.600000000000005
  79  1  M  18.2  23.00000000000001  20.600000000000005
  80  1  A  18.2  23.00000000000001  21.200000000000006
  81  1  A  18.8  23.00000000000001  21.200000000000006
  82  1  M  18.8  23.600000000000012  21.200000000000006
  83  1  A  19.400000000000002  23.600000000000012  21.200000000000006
  84  1  U  19.400000000000002  24.200000000000014  21.200000000000006
  85  1  M  19.400000000000002  24.200000000000014  21.800000000000008
  86  1  U  19.400000000000002  24.800000000000015  21.800000000000008
  87  1  U  19.400000000000002  25.400000000000016  21.800000000000008
  88  1  U  20.000000000000004  25.400000000000016  21.800000000000008
  89  1  A  20.000000000000004  26.000000000000018  21.800000000000008
  90  1  A  20.000000000000004  26.000000000000018  22.40000000000001
  91  1  A  20.000000000000004  26.60000000000002  22.40000000000001
  92  1  U  20.600000000000005  26.60000000000002  22.40000000000001
  93  1  U  20.600000000000005  27.20000000000002  22.40000000000001
  94  1  A  20.600000000000005  27.800000000000022  22.40000000000001
  95  1  U  21.200000000000006  27.800000000000022  22.40000000000001
  96  1  U  21.200000000000006  28.400000000000023  22.40000000000001
  97  1  U  21.800000000000008  28.400000000000023  22.40000000000001
  98  1  A  21.800000000000008  29.000000000000025  22.40000000000001
  99  1  M  21.800000000000008  29.600000000000026  22.40000000000001
  100  1  U  22.40000000000001  29.600000000000026  22.40000000000001
  101  1  U  22.40000000000001  30.200000000000028  22.40000000000001
  102  1  M  23.00000000000001  30.200000000000028  22.40000000000001
  103  1  M  23.00000000000001  30.200000000000028  23.00000000000001
  104  1  U  23.00000000000001  30.80000000000003  23.00000000000001
  105  1  U  23.00000000000001  31.40000000000003  23.00000000000001
  106  1  A  23.00000000000001  32.00000000000003  23.00000000000001
  107  1  U  23.00000000000001  32.00000000000003  23.600000000000012
  108  1  U  23.600000000000012  32.00000000000003  23.600000000000012
  109  1  M  23.600000000000012  32.00000000000003  24.200000000000014
  110  1  U  23.600000000000012  32.00000000000003  24.800000000000015
  111  1  M  23.600000000000012  32.60000000000003  24.800000000000015
  112  1  U  23.600000000000012  33.20000000000003  24.800000000000015
  113  1  A  23.600000000000012  33.20000000000003  25.400000000000016
  114  1  U  24.200000000000014  33.20000000000003  25.400000000000016
  115  1  A  24.800000000000015  33.20000000000003  25.400000000000016
  116  1  M  24.800000000000015  33.20000000000003  26.000000000000018
  117  1  U  24.800000000000015  33.80000000000003  26.000000000000018
  118  1  M  24.800000000000015  34.400000000000034  26.000000000000018
  119  1  M  24.800000000000015  35.000000000000036  26.000000000000018
  120  1  U  24.800000000000015  35.60000000000004  26.000000000000018
  121  1  M  24.800000000000015  35.60000000000004  26.60000000000002
  122  1  M  24.800000000000015  35.60000000000004  27.20000000000002
  123  1  U  25.400000000000016  35.60000000000004  27.20000000000002
  124  1  U  26.000000000000018  35.60000000000004  27.20000000000002
  125  1  M  26.60000000000002  35.60000000000004  27.20000000000002
  126  1  U  27.20000000000002  35.60000000000004  27.20000000000002
  127  1  M  27.20000000000002  35.60000000000004  27.800000000000022
  128  1  U  27.20000000000002  35.60000000000004  28.400000000000023
  129  1  M  27.20000000000002  36.20000000000004  28.400000000000023
  130  1  U  27.800000000000022  36.20000000000004  28.400000000000023
  131  1  U  27.800000000000022  36.20000000000004  29.000000000000025
  132  1  M  28.400000000000023  36.20000000000004  29.000000000000025
  133  1  U  29.000000000000025  36.20000000000004  29.000000000000025
  134  1  A  29.600000000000026  36.20000000000004  29.000000000000025
  135  1  A  30.200000000000028  36.20000000000004  29.000000000000025
  136  1  A  30.200000000000028  36.80000000000004  29.000000000000025
  137  1  U  30.80000000000003  36.80000000000004  29.000000000000025
  138  1  A  30.80000000000003  36.80000000000004  29.600000000000026
  139  1  U  30.80000000000003  36.80000000000004  30.200000000000028
  140  1  M  30.80000000000003  36.80000000000004  30.80000000000003
  141  1  M  30.80000000000003  36.80000000000004  31.40000000000003
  142  1  M  31.40000000000003  36.80000000000004  31.40000000000003
  143  1  U  31.40000000000003  37.40000000000004  31.40000000000003
  144  1  U  31.40000000000003  37.40000000000004  32.00000000000003
  145  1  U  32.00000000000003  37.40000000000004  32.00000000000003
  146  1  A  32.00000000000003  37.40000000000004  32.60000000000003
  147  1  M  32.60000000000003  37.40000000000004  32.60000000000003
  148  1  U  32.60000000000003  37.40000000000004  33.20000000000003
  149  1  A  32.60000000000003  37.40000000000004  33.80000000000003
  150  1  A  32.60000000000003  37.40000000000004  34.400000000000034
  151  1  M  33.20000000000003  37.40000000000004  34.400000000000034
  152  1  M  33.20000000000003  38.00000000000004  34.400000000000034
  153  1  U  33.80000000000003  38.00000000000004  34.400000000000034
  154  1  U  33.80000000000003  38.00000000000004  35.000000000000036
  155  1  U  33.80000000000003  38.00000000000004  35.60000000000004
  156  1  U  33.80000000000003  38.600000000000044  35.60000000000004
  157  1  U  33.80000000000003  39.200000000000045  35.60000000000004
  158  1  M  33.80000000000003  39.80000000000005  35.60000000000004
  159  1  A  33.80000000000003  40.40000000000005  35.60000000000004
  160  1  U  33.80000000000003  40.40000000000005  36.20000000000004
  161  1  U  33.80000000000003  41.00000000000005  36.20000000000004
  162  1  U  33.80000000000003  41.00000000000005  36.80000000000004
  163  1  M  33.80000000000003  41.60000000000005  36.80000000000004
  164  1  A  34.400000000000034  41.60000000000005  36.80000000000004
  165  1  A  34.400000000000034  41.60000000000005  37.40000000000004
  166  1  U  34.400000000000034  42.20000000000005  37.40000000000004
  167  1  U  34.400000000000034  42.20000000000005  38.00000000000004
  168  1  U  34.400000000000034  42.800000000000054  38.00000000000004
  169  1  U  34.400000000000034  42.800000000000054  38.600000000000044
  170  1  A  34.400000000000034  43.400000000000055  38.600000000000044
  171  1  A  35.000000000000036  43.400000000000055  38.600000000000044
  172  1  A  35.000000000000036  43.400000000000055  39.200000000000045
  173  1  M  35.000000000000036  44.00000000000006  39.200000000000045
  174  1  U  35.000000000000036  44.00000000000006  39.80000000000005
  175  1  A  35.000000000000036  44.00000000000006  40.40000000000005
  176  1  A  35.000000000000036  44.00000000000006  41.00000000000005
  177  1  M  35.000000000000036  44.00000000000006  41.60000000000005
  178  1  M  35.000000000000036  44.00000000000006  42.20000000000005
  179  1  U  35.60000000000004  44.00000000000006  42.20000000000005
  180  1  A  35.60000000000004  44.00000000000006  42.800000000000054
  181  1  U  35.60000000000004  44.00000000000006  43.400000000000055
  182  1  A  35.60000000000004  44.00000000000006  44.00000000000006
  183  1  M  35.60000000000004  44.00000000000006  44.60000000000006
  184  1  M  35.60000000000004  44.60000000000006  44.60000000000006
  185  1  U  36.20000000000004  44.60000000000006  44.60000000000006
  186  1  U  36.20000000000004  45.20000000000006  44.60000000000006
  187  1  M  36.80000000000004  45.20000000000006  44.60000000000006
  188  1  U  36.80000000000004  45.20000000000006  45.20000000000006
  189  1  U  37.40000000000004  45.20000000000006  45.20000000000006
  190  1  M  37.40000000000004  45.20000000000006  45.80000000000006
  191  1  A  37.40000000000004  45.80000000000006  45.80000000000006
  192  1  A  37.40000000000004  46.40000000000006  45.80000000000006
  193  1  A  38.00000000000004  46.40000000000006  45.80000000000006
  194  1  M  38.00000000000004  47.000000000000064  45.80000000000006
  195  1  A  38.600000000000044  47.000000000000064  45.80000000000006
  196  1  U  39.200000000000045  47.000000000000064  45.80000000000006
  197  1  U  39.200000000000045  47.600000000000065  45.80000000000006
  198  1  M  39.80000000000005  47.600000000000065  45.80000000000006
  199  1  M  40.40000000000005  47.600000000000065  45.80000000000006
  200  1  A  40.40000000000005  48.20000000000007  45.80000000000006
  201  1  M  40.40000000000005  48.80000000000007  45.80000000000006
  202  1  A  40.40000000000005  49.40000000000007  45.80000000000006
  203  1  M  40.40000000000005  49.40000000000007  46.40000000000006
  204  1  A  40.40000000000005  50.00000000000007  46.40000000000006
  205  1  M  41.00000000000005  50.00000000000007  46.40000000000006
  206  1  U  41.00000000000005  50.60000000000007  46.40000000000006
  207  1  A  41.00000000000005  51.200000000000074  46.40000000000006
  208  1  M  41.00000000000005  51.200000000000074  47.000000000000064
  209  1  U  41.00000000000005  51.200000000000074  47.600000000000065
  210  1  U  41.00000000000005  51.200000000000074  48.20000000000007
  211  1  M  41.00000000000005  51.200000000000074  48.80000000000007
  212  1  A  41.00000000000005  51.200000000000074  49.40000000000007
  213  1  U  41.00000000000005  51.200000000000074  50.00000000000007
  214  1  M  41.00000000000005  51.200000000000074  50.60000000000007
  215  1  M  41.00000000000005  51.200000000000074  51.200000000000074
  216  1  A  41.60000000000005  51.200000000000074  51.200000000000074
  217  1  U  41.60000000000005  51.800000000000075  51.200000000000074
  218  1  A  42.20000000000005  51.800000000000075  51.200000000000074
  219  1  M  42.20000000000005  51.800000000000075  51.800000000000075
  220  1  M  42.800000000000054  51.800000000000075  51.800000000000075
  221  1  M  42.800000000000054  52.40000000000008  51.800000000000075
  222  1  A  43.400000000000055  52.40000000000008  51.800000000000075
  223  1  M  43.400000000000055  53.00000000000008  51.800000000000075
  224  1  M  44.00000000000006  53.00000000000008  51.800000000000075
  225  1  M  44.60000000000006  53.00000000000008  51.800000000000075
  226  1  M  45.20000000000006  53.00000000000008  51.800000000000075
  227  1  A  45.20000000000006  53.00000000000008  52.40000000000008
  228  1  U  45.80000000000006  53.00000000000008  52.40000000000008
  229  1  A  45.80000000000006  53.60000000000008  52.40000000000008
  230  1  U  46.40000000000006  53.60000000000008  52.40000000000008
  231  1  M  46.40000000000006  53.60000000000008  53.00000000000008
  232  1  M  46.40000000000006  53.60000000000008  53.60000000000008
  233  1  M  46.40000000000006  54.20000000000008  53.60000000000008
  234  1  M  47.000000000000064  54.20000000000008  53.60000000000008
  235  1  U  47.000000000000064  54.80000000000008  53.60000000000008
  236  1  U  47.000000000000064  55.400000000000084  53.60000000000008
  237  1  M  47.000000000000064  55.400000000000084  54.20000000000008
  238  1  M  47.600000000000065  55.400000000000084  54.20000000000008
  239  1  M  47.600000000000065  55.400000000000084  54.80000000000008
  240  1  A  47.600000000000065  56.000000000000085  54.80000000000008
  241  1  U  47.600000000000065  56.60000000000009  54.80000000000008
  242  1  M  47.600000000000065  57.20000000000009  54.80000000000008
  243  1  M  47.600000000000065  57.80000000000009  54.80000000000008
  244  1  A  47.600000000000065  58.40000000000009  54.80000000000008
  245  1  U  48.20000000000007  58.40000000000009  54.80000000000008
  246  1  M  48.20000000000007  58.40000000000009  55.400000000000084
  247  1  M  48.20000000000007  58.40000000000009  56.000000000000085
  248  1  A  48.20000000000007  58.40000000000009  56.60000000000009
  249  1  U  48.20000000000007  58.40000000000009  57.20000000000009
  250  1  U  48.20000000000007  58.40000000000009  57.80000000000009
  251  1  M  48.80000000000007  58.40000000000009  57.80000000000009
  252  1  M  49.40000000000007  58.40000000000009  57.80000000000009
  253  1  M  50.00000000000007  58.40000000000009  57.80000000000009
  254  1  M  50.00000000000007  58.40000000000009  58.40000000000009
  255  1  M  50.00000000000007  59.00000000000009  58.40000000000009
  256  1  M  50.00000000000007  59.00000000000009  59.00000000000009
  257  1  M  50.00000000000007  59.600000000000094  59.00000000000009
  258  1  M  50.60000000000007  59.600000000000094  59.00000000000009
  259  1  M  50.60000000000007  60.200000000000095  59.00000000000009
  260  1  M  50.60000000000007  60.200000000000095  59.600000000000094
  261  1  M  50.60000000000007  60.8000000000001  59.600000000000094
  262  1  U  50.60000000000007  60.8000000000001  60.200000000000095
  263  1  A  50.60000000000007  61.4000000000001  60.200000000000095
  264  1  M  50.60000000000007  62.0000000000001  60.200000000000095
  265  1  M  51.200000000000074  62.0000000000001  60.200000000000095
  266  1  M  51.200000000000074  62.6000000000001  60.200000000000095
  267  1  A  51.200000000000074  62.6000000000001  60.8000000000001
  268  1  M  51.200000000000074  62.6000000000001  61.4000000000001
  269  1  M  51.800000000000075  62.6000000000001  61.4000000000001
  270  1  U  51.800000000000075  63.2000000000001  61.4000000000001
  271  1  A  51.800000000000075  63.2000000000001  62.0000000000001
  272  1  M  51.800000000000075  63.800000000000104  62.0000000000001
  273  1  A  52.40000000000008  63.800000000000104  62.0000000000001
  274  1  A  52.40000000000008  63.800000000000104  62.6000000000001
  275  1  M  53.00000000000008  63.800000000000104  62.6000000000001
  276  1  A  53.00000000000008  64.4000000000001  62.6000000000001
  277  1  M  53.60000000000008  64.4000000000001  62.6000000000001
  278  1  U  53.60000000000008  65.0000000000001  62.6000000000001
  279  1  U  53.60000000000008  65.6000000000001  62.6000000000001
  280  1  A  53.60000000000008  65.6000000000001  63.2000000000001
  281  1  A  53.60000000000008  65.6000000000001  63.800000000000104
  282  1  A  54.20000000000008  65.6000000000001  63.800000000000104
  283  1  U  54.20000000000008  66.20000000000009  63.800000000000104
  284  1  M  54.20000000000008  66.20000000000009  64.4000000000001
  285  1  U  54.20000000000008  66.80000000000008  64.4000000000001
  286  1  M  54.20000000000008  67.40000000000008  64.4000000000001
  287  1  U  54.80000000000008  67.40000000000008  64.4000000000001
  288  1  M  55.400000000000084  67.40000000000008  64.4000000000001
  289  1  A  55.400000000000084  68.00000000000007  64.4000000000001
  290  1  M  55.400000000000084  68.60000000000007  64.4000000000001
  291  1  U  55.400000000000084  68.60000000000007  65.0000000000001
  292  1  U  55.400000000000084  69.20000000000006  65.0000000000001
  293  1  A  56.000000000000085  69.20000000000006  65.0000000000001
  294  1  A  56.000000000000085  69.20000000000006  65.6000000000001
  295  1  U  56.000000000000085  69.20000000000006  66.20000000000009
  296  1  M  56.60000000000009  69.20000000000006  66.20000000000009
  297  1  U  56.60000000000009  69.20000000000006  66.80000000000008
  298  1  U  56.60000000000009  69.20000000000006  67.40000000000008
  299  1  A  57.20000000000009  69.20000000000006  67.40000000000008
  300  1  M  57.80000000000009  69.20000000000006  67.40000000000008
  301  1  U  57.80000000000009  69.20000000000006  68.00000000000007
  302  1  M  57.80000000000009  69.20000000000006  68.60000000000007
  303  1  U  57.80000000000009  69.80000000000005  68.60000000000007
  304  1  U  57.80000000000009  69.80000000000005  69.20000000000006
  305  1  A  57.80000000000009  69.80000000000005  69.80000000000005
  306  1  A  58.40000000000009  69.80000000000005  69.80000000000005
  307  1  U  58.40000000000009  70.40000000000005  69.80000000000005
  308  1  U  58.40000000000009  71.00000000000004  69.80000000000005
  309  1  M  58.40000000000009  71.60000000000004  69.80000000000005
  310  1  M  58.40000000000009  71.60000000000004  70.40000000000005
  311  1  M  58.40000000000009  72.20000000000003  70.40000000000005
  312  1  M  58.40000000000009  72.80000000000003  70.40000000000005
  313  1  A  59.00000000000009  72.80000000000003  70.40000000000005
  314  1  U  59.00000000000009  73.40000000000002  70.40000000000005
  315  1  U  59.00000000000009  74.00000000000001  70.40000000000005
  316  1  A  59.600000000000094  74.00000000000001  70.40000000000005
  317  1  U  59.600000000000094  74.00000000000001  71.00000000000004
  318  1  U  59.600000000000094  74.60000000000001  71.00000000000004
  319  1  M  60.200000000000095  74.60000000000001  71.00000000000004
  320  1  M  60.200000000000095  75.2  71.00000000000004
  321  1  M  60.8000000000001  75.2  71.00000000000004
  322  1  U  61.4000000000001  75.2  71.00000000000004
  323  1  U  62.0000000000001  75.2  71.00000000000004
  324  1  M  62.0000000000001  75.8  71.00000000000004
  325  1  U  62.6000000000001  75.8  71.00000000000004
  326  1  U  63.2000000000001  75.8  71.00000000000004
  327  1  M  63.2000000000001  75.8  71.60000000000004
  328  1  A  63.2000000000001  76.39999999999999  71.60000000000004
  329  1  M  63.2000000000001  76.39999999999999  72.20000000000003
  330  1  A  63.2000000000001  76.99999999999999  72.20000000000003
  331  1  M  63.2000000000001  77.59999999999998  72.20000000000003
  332  1  M  63.2000000000001  78.19999999999997  72.20000000000003
  333  1  U  63.2000000000001  78.79999999999997  72.20000000000003
  334  1  U  63.800000000000104  78.79999999999997  72.20000000000003
  335  1  M  63.800000000000104  78.79999999999997  72.80000000000003
  336  1  A  64.4000000000001  78.79999999999997  72.80000000000003
  337  1  U  64.4000000000001  79.39999999999996  72.80000000000003
  338  1  A  65.0000000000001  79.39999999999996  72.80000000000003
  339  1  M  65.0000000000001  79.39999999999996  73.40000000000002
  340  1  M  65.0000000000001  79.39999999999996  74.00000000000001
  341  1  A  65.0000000000001  79.39999999999996  74.60000000000001
  342  1  M  65.6000000000001  79.39999999999996  74.60000000000001
  343  1  A  65.6000000000001  79.99999999999996  74.60000000000001
  344  1  A  65.6000000000001  80.59999999999995  74.60000000000001
  345  1  U  65.6000000000001  81.19999999999995  74.60000000000001
  346  1  U  65.6000000000001  81.79999999999994  74.60000000000001
  347  1  U  65.6000000000001  82.39999999999993  74.60000000000001
  348  1  U  65.6000000000001  82.39999999999993  75.2
  349  1  M  65.6000000000001  82.99999999999993  75.2
  350  1  M  65.6000000000001  83.59999999999992  75.2
  351  1  U  65.6000000000001  83.59999999999992  75.8
  352  1  U  65.6000000000001  83.59999999999992  76.39999999999999
  353  1  U  65.6000000000001  84.19999999999992  76.39999999999999
  354  1  U  66.20000000000009  84.19999999999992  76.39999999999999
  355  1  M  66.20000000000009  84.19999999999992  76.99999999999999
  356  1  A  66.80000000000008  84.19999999999992  76.99999999999999
  357  1  M  67.40000000000008  84.19999999999992  76.99999999999999
  358  1  M  68.00000000000007  84.19999999999992  76.99999999999999
  359  1  M  68.60000000000007  84.19999999999992  76.99999999999999
  360  1  U  68.60000000000007  84.19999999999992  77.59999999999998
  361  1  A  69.20000000000006  84.19999999999992  77.59999999999998
  362  1  U  69.80000000000005  84.19999999999992  77.59999999999998
  363  1  U  69.80000000000005  84.19999999999992  78.19999999999997
  364  1  A  70.40000000000005  84.19999999999992  78.19999999999997
  365  1  A  71.00000000000004  84.19999999999992  78.19999999999997
  366  1  U  71.00000000000004  84.79999999999991  78.19999999999997
  367  1  A  71.00000000000004  85.3999999999999  78.19999999999997
  368  1  A  71.00000000000004  85.3999999999999  78.79999999999997
  369  1  U  71.60000000000004  85.3999999999999  78.79999999999997
  370  1  A  71.60000000000004  85.3999999999999  79.39999999999996
  371  1  A  71.60000000000004  85.3999999999999  79.99999999999996
  372  1  M  71.60000000000004  85.9999999999999  79.99999999999996
  373  1  U  71.60000000000004  85.9999999999999  80.59999999999995
  374  1  U  72.20000000000003  85.9999999999999  80.59999999999995
  375  1  M  72.20000000000003  86.5999999999999  80.59999999999995
  376  1  U  72.20000000000003  86.5999999999999  81.19999999999995
  377  1  M  72.20000000000003  86.5999999999999  81.79999999999994
  378  1  A  72.20000000000003  87.19999999999989  81.79999999999994
  379  1  U  72.80000000000003  87.19999999999989  81.79999999999994
  380  1  A  72.80000000000003  87.19999999999989  82.39999999999993
  381  1  U  72.80000000000003  87.19999999999989  82.99999999999993
  382  1  M  72.80000000000003  87.79999999999988  82.99999999999993
  383  1  A  72.80000000000003  87.79999999999988  83.59999999999992
  384  1  M  72.80000000000003  88.39999999999988  83.59999999999992
  385  1  U  72.80000000000003  88.99999999999987  83.59999999999992
  386  1  A  73.40000000000002  88.99999999999987  83.59999999999992
  387  1  U  73.40000000000002  89.59999999999987  83.59999999999992
  388  1  M  74.00000000000001  89.59999999999987  83.59999999999992
  389  1  U  74.00000000000001  90.19999999999986  83.59999999999992
  390  1  U  74.60000000000001  90.19999999999986  83.59999999999992
  391  1  U  74.60000000000001  90.19999999999986  84.19999999999992
  392  1  U  74.60000000000001  90.79999999999986  84.19999999999992
  393  1  U  75.2  90.79999999999986  84.19999999999992
  394  1  A  75.8  90.79999999999986  84.19999999999992
  395  1  M  75.8  91.39999999999985  84.19999999999992
  396  1  A  75.8  91.39999999999985  84.79999999999991
  397  1  A  75.8  91.39999999999985  85.3999999999999
  398  1  U  76.39999999999999  91.39999999999985  85.3999999999999
  399  1  U  76.39999999999999  91.39999999999985  85.9999999999999
  400  1  U  76.39999999999999  91.99999999999984  85.9999999999999
  401  1  M  76.99999999999999  91.99999999999984  85.9999999999999
  402  1  M  76.99999999999999  91.99999999999984  86.5999999999999
  403  1  A  77.59999999999998  91.99999999999984  86.5999999999999
  404  1  U  78.19999999999997  91.99999999999984  86.5999999999999
  405  1  M  78.19999999999997  92.59999999999984  86.5999999999999
  406  1  A  78.19999999999997  92.59999999999984  87.19999999999989
  407  1  M  78.19999999999997  92.59999999999984  87.79999999999988
  408  1  A  78.19999999999997  92.59999999999984  88.39999999999988
  409  1  M  78.79999999999997  92.59999999999984  88.39999999999988
  410  1  M  79.39999999999996  92.59999999999984  88.39999999999988
  411  1  M  79.99999999999996  92.59999999999984  88.39999999999988
  412  1  U  80.59999999999995  92.59999999999984  88.39999999999988
  413  1  A  80.59999999999995  93.19999999999983  88.39999999999988
  414  1  M  80.59999999999995  93.19999999999983  88.99999999999987
  415  1  U  80.59999999999995  93.19999999999983  89.59999999999987
  416  1  M  81.19999999999995  93.19999999999983  89.59999999999987
  417  1  A  81.79999999999994  93.19999999999983  89.59999999999987
  418  1  M  81.79999999999994  93.19999999999983  90.19999999999986
  419  1  U  81.79999999999994  93.79999999999983  90.19999999999986
  420  1  U  82.39999999999993  93.79999999999983  90.19999999999986
  421  1  U  82.99999999999993  93.79999999999983  90.19999999999986
  422  1  M  83.59999999999992  93.79999999999983  90.19999999999986
  423  1  A  84.19999999999992  93.79999999999983  90.19999999999986
  424  1  M  84.19999999999992  94.39999999999982  90.19999999999986
  425  1  M  84.79999999999991  94.39999999999982  90.19999999999986
  426  1  M  84.79999999999991  94.99999999999982  90.19999999999986
  427  1  A  84.79999999999991  95.59999999999981  90.19999999999986
  428  1  U  84.79999999999991  95.59999999999981  90.79999999999986
  429  1  A  84.79999999999991  95.59999999999981  91.39999999999985
  430  1  M  84.79999999999991  96.1999999999998  91.39999999999985
  431  1  M  84.79999999999991  96.7999999999998  91.39999999999985
  432  1  M  84.79999999999991  97.39999999999979  91.39999999999985
  433  1  M  84.79999999999991  97.39999999999979  91.99999999999984
  434  1  M  85.3999999999999  97.39999999999979  91.99999999999984
  435  1  U  85.9999999999999  97.39999999999979  91.99999999999984
  436  1  A  86.5999999999999  97.39999999999979  91.99999999999984