# Initialisation file of the particles

480  atoms
79  bonds

5  atom types
1  bond types

0.0000   50.0000 xlo xhi
0.0000   50.0000 ylo yhi
0.0000   50.0000 zlo zhi

Atom Type Labels

1    A
2    U
3    M
4    Swi6
5    Swi6M

Bond Type Labels

1    Normal

Masses

1    1.00 
2    1.00 
3    1.00 
4    1.00 
5    1.00 

Atoms

  1  1  M  10.0  10.0  10.0
  2  2  M  10.6  10.6  10.6
  3  3  M  11.2  11.2  11.2
  4  4  M  11.8  11.8  11.8
  5  5  M  12.4  12.4  12.4
  6  6  M  13.0  13.0  13.0
  7  7  M  13.6  13.6  13.6
  8  8  M  14.2  14.2  14.2
  9  9  M  14.8  14.8  14.8
  10  10  U  15.399999999999999  15.399999999999999  15.399999999999999
  11  11  M  16.0  16.0  16.0
  12  12  M  16.6  16.6  16.6
  13  13  M  17.2  17.2  17.2
  14  14  M  17.8  17.8  17.8
  15  15  M  18.4  18.4  18.4
  16  16  M  19.0  19.0  19.0
  17  17  U  19.6  19.6  19.6
  18  18  M  20.2  20.2  20.2
  19  19  M  20.799999999999997  20.799999999999997  20.799999999999997
  20  20  M  21.4  21.4  21.4
  21  21  M  22.0  22.0  22.0
  22  22  M  22.6  22.6  22.6
  23  23  U  23.2  23.2  23.2
  24  24  M  23.799999999999997  23.799999999999997  23.799999999999997
  25  25  M  24.4  24.4  24.4
  26  26  M  25.0  25.0  25.0
  27  27  M  25.6  25.6  25.6
  28  28  M  26.2  26.2  26.2
  29  29  M  26.8  26.8  26.8
  30  30  M  27.4  27.4  27.4
  31  31  M  28.0  28.0  28.0
  32  32  M  28.599999999999998  28.599999999999998  28.599999999999998
  33  33  M  29.2  29.2  29.2
  34  34  M  29.8  29.8  29.8
  35  35  M  30.4  30.4  30.4
  36  36  M  31.0  31.0  31.0
  37  37  U  31.599999999999998  31.599999999999998  31.599999999999998
  38  38  M  32.2  32.2  32.2
  39  39  M  32.8  32.8  32.8
  40  40  M  33.4  33.4  33.4
  41  41  M  34.0  34.0  34.0
  42  42  M  34.599999999999994  34.599999999999994  34.599999999999994
  43  43  M  35.2  35.2  35.2
  44  44  U  35.8  35.8  35.8
  45  45  M  36.4  36.4  36.4
  46  46  M  37.0  37.0  37.0
  47  47  M  37.599999999999994  37.599999999999994  37.599999999999994
  48  48  M  38.2  38.2  38.2
  49  49  M  38.8  38.8  38.8
  50  50  M  39.4  39.4  39.4
  51  51  M  40.0  40.0  40.0
  52  52  M  40.599999999999994  40.599999999999994  40.599999999999994
  53  53  M  41.2  41.2  41.2
  54  54  M  41.8  41.8  41.8
  55  55  U  42.4  42.4  42.4
  56  56  U  43.0  43.0  43.0
  57  57  U  43.6  43.6  43.6
  58  58  M  44.199999999999996  44.199999999999996  44.199999999999996
  59  59  M  44.8  44.8  44.8
  60  60  M  45.4  45.4  45.4
  61  61  M  46.0  46.0  46.0
  62  62  M  46.6  46.6  46.6
  63  63  U  47.199999999999996  47.199999999999996  47.199999999999996
  64  64  M  47.8  47.8  47.8
  65  65  M  48.4  48.4  48.4
  66  66  M  49.0  49.0  49.0
  67  67  M  49.6  49.6  49.6
  68  68  M  50.199999999999996  50.199999999999996  50.199999999999996
  69  69  M  50.8  50.8  50.8
  70  70  M  51.4  51.4  51.4
  71  71  M  52.0  52.0  52.0
  72  72  M  52.6  52.6  52.6
  73  73  M  53.199999999999996  53.199999999999996  53.199999999999996
  74  74  M  53.8  53.8  53.8
  75  75  M  54.4  54.4  54.4
  76  76  U  55.0  55.0  55.0
  77  77  M  55.6  55.6  55.6
  78  78  M  56.199999999999996  56.199999999999996  56.199999999999996
  79  79  M  56.8  56.8  56.8
  80  80  M  57.4  57.4  57.4
  81  81  Swi6  7.8790167730498535  47.70249803962668  4.501946089685144
  82  82  Swi6  46.92092826881188  13.150256694445929  14.007077117472097
  83  83  Swi6  5.323151702678553  30.784524448300655  4.044880016788462
  84  84  Swi6  38.97324448385227  17.406494223614317  43.2839367963739
  85  85  Swi6  33.31159045093596  8.897771902834876  15.469883066417765
  86  86  Swi6  12.5089293216616  16.82195382217802  35.21381229472742
  87  87  Swi6  36.00950780034722  37.208313909539946  28.69847063209741
  88  88  Swi6  13.725071350039828  41.61870970026887  10.918855222085197
  89  89  Swi6  45.581644316146246  36.11100346322904  1.1053029788791373
  90  90  Swi6  2.172376662958925  41.99041166902848  35.14922081370282
  91  91  Swi6  20.902809685792498  28.198239184310154  7.9750548532580625
  92  92  Swi6  20.969774030435577  42.44564569211208  25.231907796382774
  93  93  Swi6  21.418724326177156  39.61277760165007  13.180250160395383
  94  94  Swi6  7.332330071177932  8.36091141161726  44.33736207048296
  95  95  Swi6  41.46634472909602  21.030353286321592  15.426154819548914
  96  96  Swi6  49.15343588807862  29.170129944048185  43.24641140734101
  97  97  Swi6  47.87290835462796  29.838349554907353  36.65913533000984
  98  98  Swi6  45.092418571677875  16.187588631730158  46.99329837078288
  99  99  Swi6  9.707492007496167  42.14871738262718  36.667417790033475
  100  100  Swi6  21.03585657720377  28.183311997069925  7.52675245273568
  101  101  Swi6  2.2768432251217483  48.19116454420001  9.8830470935294
  102  102  Swi6  23.725698482388903  1.9897706258183911  42.76058156526119
  103  103  Swi6  2.3305241974059596  29.743290221152797  5.83885323660007
  104  104  Swi6  40.126851031184465  20.695931618998486  45.52313202567802
  105  105  Swi6  27.961523681465476  42.15963684747539  26.619949590224937
  106  106  Swi6  23.30902172346559  45.308999757387355  3.3423238563932856
  107  107  Swi6  10.000195887181428  44.2927355568947  26.311828425601842
  108  108  Swi6  12.278367333446853  16.72262001343974  45.38577640075048
  109  109  Swi6  36.78770749993937  17.51417809788276  30.04818292712162
  110  110  Swi6  14.096430747718815  41.61342841300143  4.188454786718809
  111  111  Swi6  41.950182933393364  46.37037834890149  9.778606555376177
  112  112  Swi6  29.42318716751857  12.47027212689159  20.19594066416026
  113  113  Swi6  11.50790400296476  3.1247010520839242  20.90915841449615
  114  114  Swi6  18.68018688728814  37.89466870364382  41.94796738852994
  115  115  Swi6  9.188679634753871  36.478578828751424  6.25302480811054
  116  116  Swi6  31.822049199149347  30.787668698026803  24.552053816801962
  117  117  Swi6  26.95324216092755  19.12543821157247  36.419748978571896
  118  118  Swi6  25.973311080108573  38.24002147174644  31.45006960886227
  119  119  Swi6  2.667696682998532  20.147165762926317  16.536859856370242
  120  120  Swi6  29.630856516487242  46.43314933717166  42.825263803888845
  121  121  Swi6  49.885687977796536  41.49702148031565  49.305079509962766
  122  122  Swi6  32.48077826105444  22.612727780173447  23.513784630851085
  123  123  Swi6  20.1117759128608  47.97625876586289  4.350941749147962
  124  124  Swi6  22.547277856212677  31.694452579728676  41.23165782309577
  125  125  Swi6  40.04787266421131  38.47956507441587  13.45032146292149
  126  126  Swi6  14.222511350550343  17.905877841892778  2.708197115710103
  127  127  Swi6  19.99659719194305  8.286565005969337  44.86081059022107
  128  128  Swi6  3.8873299003708377  45.55969131179721  44.3831549515444
  129  129  Swi6  14.813158728565176  15.73166334663604  48.50194136193198
  130  130  Swi6  36.8522363704334  12.622879437503942  7.960884162652308
  131  131  Swi6  32.062503573352714  41.40862328812549  15.930336972856006
  132  132  Swi6  38.81550733571804  41.66956849368302  37.169398626802455
  133  133  Swi6  28.311610094588033  47.65937600157965  27.063454927161892
  134  134  Swi6  45.05635653367692  17.458755633546236  11.442300250218054
  135  135  Swi6  38.43674243359376  49.49316321607813  11.341598854971474
  136  136  Swi6  39.64173356247819  21.884250455376293  25.119851335684146
  137  137  Swi6  39.42833598776747  7.036517368828189  5.576513731616912
  138  138  Swi6  31.753550517481532  13.274564077364182  8.222645292829746
  139  139  Swi6  9.107720407686777  10.804029930082793  5.074288905882634
  140  140  Swi6  44.021145662787916  27.69531708826251  11.975986499019433
  141  141  Swi6  24.101829238655768  45.041398882692405  41.62927977498209
  142  142  Swi6  25.776128704940948  1.3859905717706087  46.765279098144035
  143  143  Swi6  26.858437352234574  18.634145208227462  33.35957886689116
  144  144  Swi6  9.327440093030898  15.797993476688688  44.7387639507101
  145  145  Swi6  49.68487219716352  31.002600425848843  1.2673763961466866
  146  146  Swi6  39.76944911312365  23.351792072009154  31.159468350845273
  147  147  Swi6  17.962113472005633  11.919607099794884  37.12666473398445
  148  148  Swi6  16.683902368042332  4.455607463817168  44.68100453476252
  149  149  Swi6  31.111852982346434  48.6307770791348  22.602232846267654
  150  150  Swi6  21.506551346494255  6.223302163645417  25.64303954809973
  151  151  Swi6  46.353303609597866  21.53809197749641  38.93462152897752
  152  152  Swi6  49.70143597021044  44.645894974701996  23.550752055938176
  153  153  Swi6  27.282084646991578  45.86597569513349  49.384348881086545
  154  154  Swi6  12.555587942592002  19.569417065938854  44.82655704022883
  155  155  Swi6  17.187985047672708  24.14917992708042  7.377934252161613
  156  156  Swi6  26.761478620266953  40.677161997851165  46.07178283301972
  157  157  Swi6  3.824785490582287  7.44247960716848  48.83320265433307
  158  158  Swi6  22.622890348892316  31.120138988541576  22.202486979337547
  159  159  Swi6  39.646685008959736  27.63102070438701  13.574383982874897
  160  160  Swi6  11.031527226435337  7.065778248189023  2.0404049224119434
  161  161  Swi6  45.57142294153168  44.445224931199235  13.665689042432273
  162  162  Swi6  49.74600337799963  48.509643996817196  15.831857625981957
  163  163  Swi6  41.90576174133155  35.10499043931283  39.72082624022996
  164  164  Swi6  22.053073612738736  15.341881037790944  14.904172138424789
  165  165  Swi6  29.53598152208692  27.402237095652794  34.970892631645846
  166  166  Swi6  15.543701424559455  16.654649696357005  19.135037045393403
  167  167  Swi6  2.1887010502627735  10.699154518963374  14.610432399474453
  168  168  Swi6  23.251742493230893  6.252155682971938  8.102127565349758
  169  169  Swi6  46.95671142987182  2.3150223535367562  35.75650441184008
  170  170  Swi6  32.274147235106184  15.336761522723583  21.25905563769869
  171  171  Swi6  17.274999094678467  36.853965116943144  43.122720599704984
  172  172  Swi6  16.457582715867353  5.713400807912385  43.359838912425026
  173  173  Swi6  21.454791517961247  21.495030422295663  26.060144496192482
  174  174  Swi6  18.972145224910967  7.855847209400726  10.604505906306967
  175  175  Swi6  38.564050067085546  1.4886110218377948  41.47758061198082
  176  176  Swi6  30.90580765849838  2.784846949861234  48.10048718669386
  177  177  Swi6  10.677523585520042  40.35529994527405  47.111987560919914
  178  178  Swi6  38.98832260292085  3.2877111429204295  11.995959963676325
  179  179  Swi6  37.536065142650536  33.99483066127512  5.847984955971092
  180  180  Swi6  39.60985714417639  29.99858309316502  42.48147391704334
  181  181  Swi6  13.010066824228536  38.407375846722104  24.688758059012184
  182  182  Swi6  43.056489598766234  19.416583142262088  28.458755560443173
  183  183  Swi6  26.327357036815947  35.852034137234426  7.237215615082133
  184  184  Swi6  20.93967204946563  15.878184358334389  18.810422680939688
  185  185  Swi6  23.134597721589426  18.927509603989567  20.045360487088875
  186  186  Swi6  17.167368043305903  1.0430700870512752  13.1877571213117
  187  187  Swi6  14.679991200133028  13.99976367349803  14.250426500189725
  188  188  Swi6  25.216030046556753  28.4976664130272  4.1712362928835045
  189  189  Swi6  32.66363001922322  18.61701378415926  21.714459373652755
  190  190  Swi6  21.53059206986674  15.763856745304823  9.813048373142282
  191  191  Swi6  26.42773341015369  31.615470628908756  20.403425327565177
  192  192  Swi6  39.03137751936577  15.605774221659505  22.82499957732295
  193  193  Swi6  3.339620054239611  43.5143220506387  34.37873932284626
  194  194  Swi6  1.449581990067896  29.496853287951417  11.202430025707907
  195  195  Swi6  23.55527366981539  29.285623747012817  31.884090901290282
  196  196  Swi6  23.573322904902135  18.229707038647646  3.24861321269132
  197  197  Swi6  37.79871350875641  5.312836252973517  48.89701220560191
  198  198  Swi6  2.928519142799243  28.34760159730056  20.797927190572114
  199  199  Swi6  14.031599481363635  3.003063100959101  19.04066261066346
  200  200  Swi6  20.31500504014544  8.701629844325847  22.845104114427542
  201  201  Swi6  27.717664661502916  22.94366323031739  13.262290113589419
  202  202  Swi6  29.74326019513167  44.942205538207766  48.318072136617545
  203  203  Swi6  32.17111146742138  42.107117492297135  6.723548738140263
  204  204  Swi6  8.275150853307213  6.248232865985468  5.6360566172333035
  205  205  Swi6  47.68829692886401  47.8939361094629  41.534993177042146
  206  206  Swi6  45.220277514063234  31.950127080676914  48.289403216891074
  207  207  Swi6  14.845140532199778  13.654366878672777  44.92244658834663
  208  208  Swi6  17.515289831505903  36.5878716657492  42.85957305512392
  209  209  Swi6  7.234524421861171  17.336577289314423  4.873023996237702
  210  210  Swi6  18.905282805660626  48.28944718580254  1.8780296208815965
  211  211  Swi6  20.98287709802965  33.17713146972866  17.564661930582503
  212  212  Swi6  37.53212069075401  5.417116692662777  3.7001694531512275
  213  213  Swi6  39.00037667593237  32.13399246947767  11.465579916738205
  214  214  Swi6  38.60259232918169  8.421864032427568  9.455186086391196
  215  215  Swi6  2.0313335745657817  40.356492956424056  27.018862217576437
  216  216  Swi6  28.859162940274253  48.45661795519661  5.656240438149591
  217  217  Swi6  26.361990236261427  24.62687620827856  5.966549656129029
  218  218  Swi6  8.39145564090146  26.67971529768305  37.79409011789041
  219  219  Swi6  41.98573732455541  18.37177436574088  31.263877799418896
  220  220  Swi6  8.20745743280084  23.644285903869978  10.726190715591065
  221  221  Swi6  29.223678112146526  28.451555633324826  40.3227211190257
  222  222  Swi6  3.831564477208502  46.27565109901655  33.577902248565636
  223  223  Swi6  11.250300022692333  32.66719735155275  43.22713160201761
  224  224  Swi6  31.574524094666852  30.385851686429426  30.573448452061616
  225  225  Swi6  18.942778928556777  7.749214940659259  17.753379458898195
  226  226  Swi6  41.60184866788262  28.412585210957943  28.853644666132688
  227  227  Swi6  9.491546160306457  27.540622328793862  32.36975624191548
  228  228  Swi6  2.3437297016435488  41.977108531230144  33.39856732630845
  229  229  Swi6  21.131073801181955  43.03014956062865  43.187198209504636
  230  230  Swi6  15.06674793358552  25.857576815277618  17.746268287060868
  231  231  Swi6  29.88534774341499  18.26379497718304  41.822301671480034
  232  232  Swi6  8.1035562516237  22.52954516557963  21.166949157459907
  233  233  Swi6  43.963072907537175  43.46788376776686  9.760765589303476
  234  234  Swi6  3.9817427078464624  28.405240797941765  25.833798283679062
  235  235  Swi6  7.238196406946451  49.757719779313945  16.649419348165797
  236  236  Swi6  29.619061214516506  26.01901086942604  1.1288159085505258
  237  237  Swi6  6.787872510611348  29.914204877794067  40.17735031502746
  238  238  Swi6  4.217217379967427  12.604731338468538  7.223287983051208
  239  239  Swi6  41.05772160188381  29.13619235931196  11.96086581832297
  240  240  Swi6  29.219739791530802  6.278255395924973  46.77028697024688
  241  241  Swi6  17.277781044405877  32.39770730953465  30.613672286886185
  242  242  Swi6  47.40915232305055  15.72473100788526  5.092385644654563
  243  243  Swi6  18.183198140212237  5.4211017474705026  15.593192484298456
  244  244  Swi6  41.625468383530325  11.240585928521007  27.53897154079588
  245  245  Swi6  5.516899721143541  42.86190559155037  33.81924172625498
  246  246  Swi6  37.816400659915374  13.0070045023854  41.16517921764476
  247  247  Swi6  12.625132476113334  38.39762193435992  14.634107082386949
  248  248  Swi6  28.066312337580083  1.8024575605603077  38.36178894705403
  249  249  Swi6  48.98424566461831  8.32493043832446  2.169279403879173
  250  250  Swi6  10.947808260222754  4.312678212316012  25.47153550450178
  251  251  Swi6  25.75949684897581  48.52027094534162  43.5458055371117
  252  252  Swi6  12.745266101045331  24.068472177093916  26.085374914421372
  253  253  Swi6  13.546568466632886  34.648774169916926  35.66710767828102
  254  254  Swi6  46.21309745855562  39.39686512951522  49.09073463134889
  255  255  Swi6  47.07670442991791  31.303040784372733  19.390166913919824
  256  256  Swi6  4.855747084171599  24.365498177608362  35.33030215323037
  257  257  Swi6  10.215900923925412  4.578623032009552  12.391541260383026
  258  258  Swi6  31.955287504086165  3.7465177679226564  10.76570362453388
  259  259  Swi6  30.98996221385158  49.34923196760997  45.74922067974725
  260  260  Swi6  5.016798688006908  26.05122028496525  10.32770478448706
  261  261  Swi6  6.403269682780646  19.593414159808383  39.71491141854545
  262  262  Swi6  41.59203175571863  17.602449333195672  41.20277415964197
  263  263  Swi6  26.97988324400429  32.966179483395265  7.122706631432326
  264  264  Swi6  16.065568041363985  30.28952171264213  11.645485818257239
  265  265  Swi6  12.201601087235138  7.974307405225305  30.166231074913888
  266  266  Swi6  27.071290227586957  43.448120702982926  31.908332782783667
  267  267  Swi6  17.947453149552487  35.925113029249346  44.59288569618294
  268  268  Swi6  17.44728165901627  48.22932676679354  21.288135910830388
  269  269  Swi6  27.20634167496704  30.622721546213644  44.997365948958915
  270  270  Swi6  14.671963248850288  39.17179570013645  38.84671738448656
  271  271  Swi6  46.01339765659321  15.329346344621712  35.62642326222679
  272  272  Swi6  21.190699388089104  25.24315151658863  38.498320042314035
  273  273  Swi6  47.649648352607706  15.141105420228364  34.09552431978997
  274  274  Swi6  16.597490605422685  9.488864060448496  2.800254565514816
  275  275  Swi6  25.94741063028011  25.11268655481486  15.398406973548143
  276  276  Swi6  43.49415421281613  16.264066593718  26.611383175373895
  277  277  Swi6  43.1574949403471  8.465199833172857  47.87382655290342
  278  278  Swi6  43.260943136425645  23.079184113415337  2.869278539491997
  279  279  Swi6  37.61959538786303  30.218724300187965  47.60128402777437
  280  280  Swi6  14.009784781811476  8.748913941589489  19.858609279259475
  281  281  Swi6  8.071266133247658  44.84663882423793  20.012405828615208
  282  282  Swi6  18.244675858322033  47.2216988904571  35.363983612771804
  283  283  Swi6  16.314806327390343  1.1550258193726581  38.744083994168854
  284  284  Swi6  16.080129110605213  21.56925973116852  29.53770036573069
  285  285  Swi6  36.90634546029273  7.517788286196458  7.202958460624975
  286  286  Swi6  15.383103907157732  1.6460547765620028  11.577809520239526
  287  287  Swi6  40.572042207235455  23.135436220688355  41.95536928045314
  288  288  Swi6  29.4288960825933  13.096447548135288  27.322552276529596
  289  289  Swi6  26.9079565271172  35.670435407176114  3.340655860000905
  290  290  Swi6  42.70528706105046  10.513290569664209  1.3698511940277538
  291  291  Swi6  1.481012105069886  16.362221860618824  1.2483648618169594
  292  292  Swi6  41.869615133377856  28.760565781464113  21.962294091228856
  293  293  Swi6  40.10186465023039  36.44676513863326  17.908947136773616
  294  294  Swi6  42.64660807733761  35.17336682625711  17.239716645728457
  295  295  Swi6  6.591404636999911  46.52084124458038  7.440755748625382
  296  296  Swi6  15.02013548409177  16.8457081451361  37.17310906227999
  297  297  Swi6  36.36040765738671  44.81318336505765  14.32104814556975
  298  298  Swi6  48.665223848263786  4.365481321063643  28.28707207626427
  299  299  Swi6  40.828454164719  49.043035046228496  25.145216954134092
  300  300  Swi6  13.045956853573951  37.99956867294449  35.46834304525499
  301  301  Swi6  24.754777004393546  12.160257202794368  1.1757389278680845
  302  302  Swi6  13.508660179301726  48.64663874886838  3.392546218657631
  303  303  Swi6  29.212578137111013  24.746924543581798  24.003220271293618
  304  304  Swi6  4.776679070506477  18.87290735207002  26.67763781025802
  305  305  Swi6  44.12118078051464  8.81995988549404  15.284531616530101
  306  306  Swi6  26.404956310336974  42.792733830043794  34.11983622917695
  307  307  Swi6  46.19329633251082  25.00253655957819  4.426319157806761
  308  308  Swi6  21.0372250218226  6.415011901836958  41.50383948426848
  309  309  Swi6  40.00018026939673  1.1063073888871133  25.00905407890611
  310  310  Swi6  2.723165215884865  2.4721920398020982  13.917511289771483
  311  311  Swi6  35.10593770964892  49.7499809573874  37.58132460406328
  312  312  Swi6  42.36682071484336  14.771029042404734  33.34253272942649
  313  313  Swi6  7.4238912416150775  40.60535164960059  30.3658196478988
  314  314  Swi6  2.229001073806847  22.29289634987086  5.2083981834232205
  315  315  Swi6  1.62286140943502  45.3286937705871  7.211084008478252
  316  316  Swi6  22.755576270682845  38.19141780381857  15.981624679850341
  317  317  Swi6  17.4448994617552  19.08509108355371  48.03698224500294
  318  318  Swi6  3.922980566824715  48.815718996515464  41.960210143105115
  319  319  Swi6  7.09251003259461  29.2027607290515  7.59654678463492
  320  320  Swi6  44.84869826352712  25.964075193809904  27.094218982040708
  321  321  Swi6  3.910359969425177  44.44043483453381  4.746458615288169
  322  322  Swi6  5.972138446880872  36.018826433625925  7.907674360296918
  323  323  Swi6  13.650372715473969  1.9237740634163263  22.52110215479146
  324  324  Swi6  12.224634784078644  12.552660872871586  8.789877498899665
  325  325  Swi6  18.62565682572122  13.879061264047934  10.304263245932686
  326  326  Swi6  49.68633224561982  21.285082529365123  46.87488307470064
  327  327  Swi6  32.9712058023983  6.863144122944917  20.02946329704929
  328  328  Swi6  20.714939891883  19.52847881536389  11.32882831820532
  329  329  Swi6  39.151405988593694  40.11761739239728  4.7314505015924375
  330  330  Swi6  31.416351165394612  16.127707953254188  44.78697071450439
  331  331  Swi6  8.999645679792536  1.262530781687401  49.818790946706045
  332  332  Swi6  17.549791733189547  24.816600476218248  40.813281327022715
  333  333  Swi6  2.7266801144456196  24.408117236828847  3.371039896181063
  334  334  Swi6  34.23087672192168  42.22658094243706  39.92420411538897
  335  335  Swi6  10.612064496431934  32.3546537741337  46.293237781254135
  336  336  Swi6  9.407367496356887  31.654551082326623  15.974430410620437
  337  337  Swi6  8.326591858166172  23.568839443511656  42.104943075669034
  338  338  Swi6  33.99225389568673  48.01083723818157  35.21655616595714
  339  339  Swi6  20.33663170134503  1.0987738341499014  2.8329317939872167
  340  340  Swi6  15.221249755276032  25.35272318193445  8.430465748869647
  341  341  Swi6  30.765250368774478  36.003389581731575  45.30217127115041
  342  342  Swi6  46.97456161474192  45.14380745441546  1.4990514756240043
  343  343  Swi6  26.13223902181617  14.750909221477512  36.17613495594878
  344  344  Swi6  20.06895878572176  31.25341848430804  5.644511872546008
  345  345  Swi6  37.81195590578625  15.938385326887515  14.75058479645622
  346  346  Swi6  34.759378371652254  7.176757577487162  41.00745427946104
  347  347  Swi6  2.5645033117544527  24.487957012141138  5.792630005194706
  348  348  Swi6  17.24010478315518  24.715251694533634  49.0603578694167
  349  349  Swi6  45.41980573616132  35.44311819072452  7.234714864765142
  350  350  Swi6  1.1212015491727496  40.8635387733738  17.65176365011829
  351  351  Swi6  35.7712951450958  10.078195839015777  36.426668024524965
  352  352  Swi6  12.603857885860414  26.138990002597584  8.938902335229562
  353  353  Swi6  39.04921978190404  16.162641762650058  42.847776497586246
  354  354  Swi6  34.05753880313741  4.09865253061729  42.305252187598825
  355  355  Swi6  12.286602030620145  42.25029514041102  10.830723626406577
  356  356  Swi6  38.499299000639986  35.54373842384666  40.249949123496414
  357  357  Swi6  18.14552357550349  22.467635069392568  38.3365288492227
  358  358  Swi6  4.108611665879263  24.111316392178466  14.79185621070568
  359  359  Swi6  20.135272828164197  2.116953742448168  17.660982282232762
  360  360  Swi6  31.15451965954462  20.263265976626997  41.4202816753499
  361  361  Swi6  41.425307003279116  49.784865807228606  4.494256158984069
  362  362  Swi6  35.300970894388115  21.989310724199488  24.247584493598666
  363  363  Swi6  28.678047904463295  6.92793080618542  42.84210896742878
  364  364  Swi6  39.09649049624065  49.78396129675151  31.95066106522571
  365  365  Swi6  23.246804241630407  46.41277985386624  34.90338701516652
  366  366  Swi6  37.67873907013028  14.125423888166907  20.528108376615524
  367  367  Swi6  39.29653242490278  8.252762759773777  4.2517533701667904
  368  368  Swi6  14.11221052084956  6.155718322060055  1.0722042218338732
  369  369  Swi6  22.34378034020693  18.16734017052272  29.299543660758598
  370  370  Swi6  5.739968612069021  12.444761917812736  22.23714669775991
  371  371  Swi6  45.35690307298108  15.68195403254929  36.24346954629993
  372  372  Swi6  20.550585760940447  20.676802890716743  3.7879631531724898
  373  373  Swi6  21.282452192746437  27.091673693534574  11.942502044242977
  374  374  Swi6  43.30523167893681  44.96836114596419  26.050058837036243
  375  375  Swi6  10.313594107665107  47.17666503469117  13.073194706354256
  376  376  Swi6  7.728453693086085  9.036687538535226  4.437461729502899
  377  377  Swi6  44.27242472899594  29.771379685492473  19.248380334979206
  378  378  Swi6  43.360077401622874  31.71338474541273  10.819170858098135
  379  379  Swi6  35.134874052727774  30.9806923172749  28.286074544916826
  380  380  Swi6  44.25149611825014  46.807360141663764  26.070461640132237
  381  381  Swi6  7.910575912682799  45.79912361045754  7.74611424561105
  382  382  Swi6  37.92963837678187  13.378254053098319  10.1377755693531
  383  383  Swi6  24.167871538610353  15.155040442018201  32.36316283735259
  384  384  Swi6  10.803326406581212  45.65831892547178  14.327387874016177
  385  385  Swi6  1.0020611904841266  42.23299999275038  11.61368520798236
  386  386  Swi6  8.501398701163765  49.04173269912057  29.083908041638733
  387  387  Swi6  23.94389948393147  21.76654451599774  6.064072519429919
  388  388  Swi6  36.46555765961074  2.927710065978064  10.918585157827655
  389  389  Swi6  36.608236794889116  45.68649942150517  33.63343020991085
  390  390  Swi6  31.007508485837505  5.257321391473725  13.13028416285101
  391  391  Swi6  15.517745824648205  33.09234646178053  45.94132193627337
  392  392  Swi6  29.546243349284655  11.502679375563368  13.844629080639969
  393  393  Swi6  24.702993509502715  26.49245338405708  44.206101451784036
  394  394  Swi6  1.4148348698911268  3.2646087653531426  17.13679894201625
  395  395  Swi6  15.740339750473703  24.62068315278853  31.592561704817967
  396  396  Swi6  2.1559920021829777  6.883218373910121  35.92764786110078
  397  397  Swi6  3.042769423864474  6.469435026602135  49.621825377492826
  398  398  Swi6  11.846539713458297  49.75525643159694  39.738216136141524
  399  399  Swi6  34.496946522966404  32.47804118199948  4.631463158909336
  400  400  Swi6  4.168216039594294  46.923882974239646  21.326701238597792
  401  401  Swi6  45.4949100604713  32.9648650206159  9.53841213515973
  402  402  Swi6  13.281606220023413  38.04335726276929  39.52640650950217
  403  403  Swi6  27.11363016862117  37.158994942557726  19.70638978738891
  404  404  Swi6  41.56128882586001  3.9541875898051018  10.440760336609877
  405  405  Swi6  15.536019544011928  4.830251659531704  4.887970670187791
  406  406  Swi6  48.66434974903841  42.49286502905114  23.960529363824485
  407  407  Swi6  45.893218121849436  32.16468794218278  12.838079589836655
  408  408  Swi6  13.907281160922945  12.17813362716366  31.6435155453988
  409  409  Swi6  40.87193036853719  43.66722909770518  19.006162738782354
  410  410  Swi6  6.8638142308448105  36.32539849309904  3.4845947035340212
  411  411  Swi6  27.677151613814996  13.989827258067448  33.50878053101914
  412  412  Swi6  7.000618616064936  22.43610364170943  26.212146513724136
  413  413  Swi6  36.54127813709937  2.8588388838345242  23.072365094007075
  414  414  Swi6  28.073683944700953  6.3142352458019495  6.353523499000207
  415  415  Swi6  40.56894659428743  30.9651524439438  43.117901939656306
  416  416  Swi6  12.733665919375033  38.24912420158821  6.038758807973269
  417  417  Swi6  3.5949857578318287  24.592616170084295  24.64915888075082
  418  418  Swi6  43.80526726729691  7.956164389909543  19.817948475564133
  419  419  Swi6  20.691881253771275  38.01372442257871  49.49933489664355
  420  420  Swi6  40.93186320725182  23.893754466671407  35.976919852916815
  421  421  Swi6  43.58743555028958  35.74309667807107  21.68616168856052
  422  422  Swi6  20.778112424489983  3.776073138341969  43.30138073663673
  423  423  Swi6  43.17779115364412  10.371170362784582  31.737062490683822
  424  424  Swi6  5.310404927747506  45.04820459465728  46.715647215653995
  425  425  Swi6  49.11326963692232  9.050129257665905  10.607116261521469
  426  426  Swi6  45.634996827213634  41.75788328559309  27.234994210118455
  427  427  Swi6  13.988012667300548  9.801609808610058  4.555760395574845
  428  428  Swi6  23.405629003646286  18.860424944698885  25.230868196711402
  429  429  Swi6  47.279060216201785  13.130422990404782  18.59948656468455
  430  430  Swi6  13.09928501971119  49.50609409247409  42.17204208188206
  431  431  Swi6  46.703977395622026  33.56821800428315  18.583654984702214
  432  432  Swi6  14.724555587251608  9.137421960176649  39.72708949275686
  433  433  Swi6  16.952508591889632  8.535318130510888  3.805890851206769
  434  434  Swi6  43.72137307487263  6.129764210882861  44.785074280441776
  435  435  Swi6  40.57517528917232  14.731174043876738  16.734044762483503
  436  436  Swi6  33.9633899984359  2.8927610315144383  45.0074670676095