# Initialisation file of the particles

480  atoms
79  bonds

5  atom types
1  bond types

0.0000   50.0000 xlo xhi
0.0000   50.0000 ylo yhi
0.0000   50.0000 zlo zhi

Atom Type Labels

1    A
2    U
3    M
4    Swi6
5    Swi6M

Bond Type Labels

1    Normal

Masses

1    1.00 
2    1.00 
3    1.00 
4    1.00 
5    1.00 

Atoms

  1  1  A  10.0  10.0  10.0
  2  2  A  10.6  10.6  10.6
  3  3  A  11.2  11.2  11.2
  4  4  A  11.8  11.8  11.8
  5  5  A  12.4  12.4  12.4
  6  6  A  13.0  13.0  13.0
  7  7  A  13.6  13.6  13.6
  8  8  A  14.2  14.2  14.2
  9  9  U  14.8  14.8  14.8
  10  10  A  15.399999999999999  15.399999999999999  15.399999999999999
  11  11  A  16.0  16.0  16.0
  12  12  A  16.6  16.6  16.6
  13  13  A  17.2  17.2  17.2
  14  14  A  17.8  17.8  17.8
  15  15  A  18.4  18.4  18.4
  16  16  A  19.0  19.0  19.0
  17  17  A  19.6  19.6  19.6
  18  18  A  20.2  20.2  20.2
  19  19  A  20.799999999999997  20.799999999999997  20.799999999999997
  20  20  A  21.4  21.4  21.4
  21  21  U  22.0  22.0  22.0
  22  22  A  22.6  22.6  22.6
  23  23  U  23.2  23.2  23.2
  24  24  A  23.799999999999997  23.799999999999997  23.799999999999997
  25  25  A  24.4  24.4  24.4
  26  26  U  25.0  25.0  25.0
  27  27  A  25.6  25.6  25.6
  28  28  A  26.2  26.2  26.2
  29  29  U  26.8  26.8  26.8
  30  30  A  27.4  27.4  27.4
  31  31  A  28.0  28.0  28.0
  32  32  A  28.599999999999998  28.599999999999998  28.599999999999998
  33  33  A  29.2  29.2  29.2
  34  34  U  29.8  29.8  29.8
  35  35  A  30.4  30.4  30.4
  36  36  U  31.0  31.0  31.0
  37  37  A  31.599999999999998  31.599999999999998  31.599999999999998
  38  38  A  32.2  32.2  32.2
  39  39  U  32.8  32.8  32.8
  40  40  A  33.4  33.4  33.4
  41  41  A  34.0  34.0  34.0
  42  42  A  34.599999999999994  34.599999999999994  34.599999999999994
  43  43  A  35.2  35.2  35.2
  44  44  U  35.8  35.8  35.8
  45  45  A  36.4  36.4  36.4
  46  46  U  37.0  37.0  37.0
  47  47  A  37.599999999999994  37.599999999999994  37.599999999999994
  48  48  A  38.2  38.2  38.2
  49  49  A  38.8  38.8  38.8
  50  50  A  39.4  39.4  39.4
  51  51  U  40.0  40.0  40.0
  52  52  A  40.599999999999994  40.599999999999994  40.599999999999994
  53  53  A  41.2  41.2  41.2
  54  54  U  41.8  41.8  41.8
  55  55  A  42.4  42.4  42.4
  56  56  A  43.0  43.0  43.0
  57  57  A  43.6  43.6  43.6
  58  58  A  44.199999999999996  44.199999999999996  44.199999999999996
  59  59  U  44.8  44.8  44.8
  60  60  A  45.4  45.4  45.4
  61  61  A  46.0  46.0  46.0
  62  62  A  46.6  46.6  46.6
  63  63  A  47.199999999999996  47.199999999999996  47.199999999999996
  64  64  A  47.8  47.8  47.8
  65  65  A  48.4  48.4  48.4
  66  66  U  49.0  49.0  49.0
  67  67  A  49.6  49.6  49.6
  68  68  U  50.199999999999996  50.199999999999996  50.199999999999996
  69  69  U  50.8  50.8  50.8
  70  70  A  51.4  51.4  51.4
  71  71  U  52.0  52.0  52.0
  72  72  A  52.6  52.6  52.6
  73  73  A  53.199999999999996  53.199999999999996  53.199999999999996
  74  74  A  53.8  53.8  53.8
  75  75  A  54.4  54.4  54.4
  76  76  A  55.0  55.0  55.0
  77  77  A  55.6  55.6  55.6
  78  78  A  56.199999999999996  56.199999999999996  56.199999999999996
  79  79  A  56.8  56.8  56.8
  80  80  A  57.4  57.4  57.4
  81  81  Swi6  49.98348186626762  27.594229277307416  8.148202769080267
  82  82  Swi6  4.935401205169024  36.21765043954576  4.201385432413807
  83  83  Swi6  23.654391426627857  41.59365007888056  23.840833721059415
  84  84  Swi6  24.350138258977836  11.837265157205021  38.82466909495103
  85  85  Swi6  18.248590726980936  41.5856975809006  28.554793998968183
  86  86  Swi6  3.569955088471292  26.171981702549317  30.44655757558324
  87  87  Swi6  34.80062232008092  6.530566447986445  37.44663746239905
  88  88  Swi6  17.754735728272713  32.232177826906884  31.677019031114682
  89  89  Swi6  4.0733702353182775  37.86212064259608  8.089944189244944
  90  90  Swi6  3.4213383663514256  24.778239113291473  48.090359137118405
  91  91  Swi6  10.07396324917158  30.147980861665584  25.924909560170416
  92  92  Swi6  31.396539504600078  27.916047616901988  17.78842893886858
  93  93  Swi6  2.4712020141649718  6.04998732378466  20.07335506240037
  94  94  Swi6  4.272523562716611  47.544999033099515  49.55813589108139
  95  95  Swi6  49.600218635008865  9.116434041247999  7.115866585048466
  96  96  Swi6  27.249479358936355  30.130420968720056  29.62240070557957
  97  97  Swi6  13.883188242914574  35.04958822082774  14.85552870914365
  98  98  Swi6  29.00958901261862  37.72923843992005  42.35986169314429
  99  99  Swi6  2.871336816960639  26.550357464874015  17.20360437165016
  100  100  Swi6  15.247985753511694  2.646272500737281  1.3354694757511854
  101  101  Swi6  31.17932530480108  48.14713802013677  26.231973570570347
  102  102  Swi6  34.020935145016416  25.965606717383295  11.922538871908342
  103  103  Swi6  43.79908338154245  10.674803449133213  29.840473426358898
  104  104  Swi6  34.80204230906285  34.18330298205907  39.95382321433543
  105  105  Swi6  11.186759437888021  22.531576475699175  28.415227627882416
  106  106  Swi6  37.73245147048826  7.832358289473659  1.7870776591403654
  107  107  Swi6  40.95422182309389  35.707919072127225  45.106195587260586
  108  108  Swi6  16.149531055092837  42.06982857986869  48.84428595782246
  109  109  Swi6  11.91879929502765  9.188750491510294  6.307814525088835
  110  110  Swi6  31.06401508545609  1.5849519907166698  27.39854331519021
  111  111  Swi6  7.818524628606838  39.40195330604448  38.33781364974741
  112  112  Swi6  16.03894488453525  33.251831404999706  21.317349695896624
  113  113  Swi6  3.4811230670548685  10.17582878486944  43.92537817648767
  114  114  Swi6  7.9851622657920895  32.593155595011936  45.04658538423239
  115  115  Swi6  39.83872187437922  9.020145103452403  48.78865006273458
  116  116  Swi6  11.669008801293325  31.569213698171964  2.019378714412756
  117  117  Swi6  15.080407188032378  30.468765442055094  6.259400704309891
  118  118  Swi6  48.692664992338855  19.657698561015373  46.71899366474493
  119  119  Swi6  29.921828891540468  14.198757165133717  19.157699670071068
  120  120  Swi6  34.549178204929994  31.86127816685965  35.627151416227576
  121  121  Swi6  43.60108511938654  36.23888241419745  49.90880442989392
  122  122  Swi6  16.689779253448993  21.201250564422715  49.23365832632799
  123  123  Swi6  3.7933765572032305  5.185939215905599  39.86878765304091
  124  124  Swi6  4.818906484728759  32.33962884960597  23.215705421718706
  125  125  Swi6  7.737654276232304  15.095682634890466  12.219768037870777
  126  126  Swi6  19.281839080210176  12.545892469667798  42.05298114290866
  127  127  Swi6  28.64113817119561  40.470460359199976  41.167373071144226
  128  128  Swi6  12.100209562320455  35.521001529528384  36.023558864585404
  129  129  Swi6  36.44183049531645  20.14969731603781  42.46106360143512
  130  130  Swi6  49.81557070262471  34.09546680134394  24.789346174830342
  131  131  Swi6  10.738297619877681  15.563471475674312  40.33545761828308
  132  132  Swi6  43.13728270873247  47.30848505801053  33.49879185862701
  133  133  Swi6  28.54739921943839  19.580380749903252  33.18458765552754
  134  134  Swi6  1.067386858572355  1.584610771706069  7.026391953141825
  135  135  Swi6  10.866316340284508  45.09591131124277  18.043674495839785
  136  136  Swi6  1.2010597663663374  18.344139111353694  25.097880941762465
  137  137  Swi6  4.865963027782067  28.98976103459057  48.27985601691371
  138  138  Swi6  32.856365711528596  40.66291872617315  5.607842632430264
  139  139  Swi6  6.367224542046827  33.77899696255003  27.971838327268376
  140  140  Swi6  23.785331078587408  12.385247281933724  26.351658355803206
  141  141  Swi6  48.82938070530144  21.855621606170075  22.886522779271083
  142  142  Swi6  15.79691822693422  25.78002580348897  21.30351764337244
  143  143  Swi6  16.69631441708939  3.9073074604581293  2.649631404144668
  144  144  Swi6  11.711196165451657  27.3456450230315  5.8350144092452565
  145  145  Swi6  6.931408871613451  19.42351598200724  7.922391661339651
  146  146  Swi6  36.44124343660062  35.87803637163488  18.140673097163692
  147  147  Swi6  16.298410738689057  24.013197344772802  17.02832074174498
  148  148  Swi6  28.809949790407412  7.295220975062247  1.7621374913618437
  149  149  Swi6  28.722472607398185  24.625742078300433  1.3997438869981802
  150  150  Swi6  20.94043972024469  37.870673077337045  23.358749590020548
  151  151  Swi6  40.6250404958096  31.228961760663463  32.70363836400645
  152  152  Swi6  43.32884581282537  48.30244938069869  24.40846465101721
  153  153  Swi6  33.37823274712031  9.22870713369765  43.698061433315175
  154  154  Swi6  44.61762933498488  41.979971654947036  41.62468796652537
  155  155  Swi6  19.713814261774573  36.403073571423555  16.64277054608883
  156  156  Swi6  28.54908528836345  48.786415225333315  41.211563086634875
  157  157  Swi6  48.53266893955244  28.022531107875558  29.665364130075876
  158  158  Swi6  38.442513857782906  37.095637511482295  29.19328198868415
  159  159  Swi6  35.87876120520219  35.00872770118985  6.270330715178744
  160  160  Swi6  9.67106983132368  41.89245116208874  39.64831304586534
  161  161  Swi6  24.4002965232516  22.20100823639031  33.21744913999428
  162  162  Swi6  9.978084900122163  1.5684624083044114  21.598320194092647
  163  163  Swi6  49.40542096213409  32.539380088725395  21.014014428625266
  164  164  Swi6  5.806771689540212  34.94249816353041  46.033330453578536
  165  165  Swi6  10.691232195907062  25.046693708312414  5.342441061520188
  166  166  Swi6  16.484887865374482  7.654657334988139  47.30086216914168
  167  167  Swi6  15.989231602406038  30.092223848552585  24.595832591078345
  168  168  Swi6  43.52564754251663  35.69841899177024  18.362478621770293
  169  169  Swi6  14.39042585854371  1.3252225997292122  6.581194790427346
  170  170  Swi6  2.6619859388837517  14.179381056855506  11.805258852516305
  171  171  Swi6  38.03448632243849  44.67307130853997  7.618926010472391
  172  172  Swi6  19.20301459866837  29.2739440167187  26.767911443930558
  173  173  Swi6  44.70153892809616  9.483983583106975  45.19643206155131
  174  174  Swi6  48.55367695039389  9.649455605286798  44.054869248264815
  175  175  Swi6  28.703966175113443  21.03500545172611  34.218889797953196
  176  176  Swi6  36.171560912213955  31.994420213702497  1.6019715247029866
  177  177  Swi6  42.88632306558319  16.106683452191035  9.940447252377664
  178  178  Swi6  22.135264853898022  17.962173165928885  34.74286777511884
  179  179  Swi6  10.05840532419572  20.931505027482427  35.274925638595555
  180  180  Swi6  31.751228061849314  23.480292145071918  19.17417341751851
  181  181  Swi6  11.545113585298422  34.152082324501166  46.783657344349635
  182  182  Swi6  10.194825919536664  14.121757959980132  41.91740569372599
  183  183  Swi6  37.402756385662684  48.83221814376489  3.392112260874476
  184  184  Swi6  29.286135983324517  41.84216666680311  11.066606994993574
  185  185  Swi6  33.127570481493215  12.359372533766992  8.959626248071427
  186  186  Swi6  12.704555613845493  39.94459067689309  2.476663487590158
  187  187  Swi6  13.569636991265746  3.6376363148686277  21.894807771375262
  188  188  Swi6  37.02703567602948  33.91209959210488  40.67294077060664
  189  189  Swi6  24.01053233301754  42.14026614294099  46.85169875427183
  190  190  Swi6  23.940613724710158  36.647825473885334  20.115081036269363
  191  191  Swi6  30.88200106206508  48.49195305549563  8.288379489909879
  192  192  Swi6  26.70907111049224  16.040536080730227  25.419126331080243
  193  193  Swi6  29.394110398435103  12.061908595548864  49.327684158972815
  194  194  Swi6  11.062172926245639  28.074025422313166  38.99204755670447
  195  195  Swi6  18.900819446902208  44.66652135616081  5.26414161769768
  196  196  Swi6  5.421380196945773  44.61774760225418  14.780324900033074
  197  197  Swi6  11.779598981549643  27.83279721333325  26.137688361406237
  198  198  Swi6  32.69775760245832  4.932656470083654  23.731632421533885
  199  199  Swi6  2.06470856255486  6.855801747479657  46.34022327347027
  200  200  Swi6  24.65319735260884  4.293398136473943  13.082920904340806
  201  201  Swi6  4.1500334051345735  1.8845392755005164  37.40091061653291
  202  202  Swi6  7.982664897687436  10.478104779916407  46.71801606230995
  203  203  Swi6  32.175149722499725  45.91069811701863  24.696093996668782
  204  204  Swi6  46.30566733625256  1.096494745817977  37.382167230243965
  205  205  Swi6  5.8237610049960775  13.570897887732473  33.949345753891805
  206  206  Swi6  27.740867872293183  40.44156615440552  21.5282372879978
  207  207  Swi6  48.66272923461054  19.66429271669588  7.457503816862443
  208  208  Swi6  2.37676083246721  22.190573702224178  20.58752629634854
  209  209  Swi6  15.939359801288361  9.094027088675006  19.36161428319803
  210  210  Swi6  48.277396742983015  27.352545979781997  21.084710091828672
  211  211  Swi6  48.591768569855944  7.347276551928411  12.504025187731342
  212  212  Swi6  16.60635305309584  6.982023665546942  5.130010168859179
  213  213  Swi6  30.42707686850669  9.023179573368887  6.502291878565235
  214  214  Swi6  37.59122384058155  40.21134049166076  37.214142606833875
  215  215  Swi6  14.794207993362713  1.5003744938274197  20.464092013547003
  216  216  Swi6  39.29008692402175  25.72809821936489  13.239950450874446
  217  217  Swi6  26.742376486479735  4.3821091671888475  8.200209693367338
  218  218  Swi6  47.42706317119849  25.473264479936127  4.004582347817584
  219  219  Swi6  31.214798058027064  29.613361856390913  13.0436922821759
  220  220  Swi6  2.1870248377176003  42.443393825836125  37.1576865772673
  221  221  Swi6  39.05356532464283  43.9435266525502  13.423182755155453
  222  222  Swi6  10.402142223237329  11.945838432793575  13.920700254014111
  223  223  Swi6  42.05670107126733  43.431326383020256  43.41232005724841
  224  224  Swi6  42.32446540847561  5.591369270648471  20.937893023855324
  225  225  Swi6  46.28209049385338  32.416337457804545  4.456073872761302
  226  226  Swi6  42.83011807127166  22.968280946577707  2.084029616313899
  227  227  Swi6  49.47629669384421  44.62096698385098  29.45123966282208
  228  228  Swi6  37.23190339843132  48.65429819869301  4.094498964192827
  229  229  Swi6  35.39501728891987  19.569369323819043  31.72987827071539
  230  230  Swi6  5.758715385396572  45.71474461138258  14.326258962025943
  231  231  Swi6  47.17699907162114  4.5831326977976286  40.46998208515809
  232  232  Swi6  11.904313698445943  18.63927112492626  27.348491509937503
  233  233  Swi6  39.008292871781656  10.057169375519937  17.035705502941877
  234  234  Swi6  33.975605306697716  18.2504841757208  3.7798224172849415
  235  235  Swi6  16.91021997478017  27.679234522014386  32.66867034392325
  236  236  Swi6  48.22319951051434  1.3993211524714322  32.061137217499386
  237  237  Swi6  3.0427711689959134  19.207172892816555  11.202774208720223
  238  238  Swi6  28.352270729288364  7.461593309130123  19.849954413010725
  239  239  Swi6  42.328702763896004  29.45247859655188  37.93399419924908
  240  240  Swi6  30.915116529537414  23.15036447302875  24.054074627752218
  241  241  Swi6  36.306085154990946  30.96610818630217  35.97283094348513
  242  242  Swi6  8.89409400966369  31.588222919695827  9.73490762853557
  243  243  Swi6  12.230112725960241  25.289980343284803  22.703398279100593
  244  244  Swi6  7.53929880724272  17.201556676493343  48.044983947800034
  245  245  Swi6  23.778905514326016  44.21528611564839  4.865950372960855
  246  246  Swi6  36.61631748616049  23.927608934461087  18.231525569653016
  247  247  Swi6  3.447905440537051  17.724262079073142  18.27921326229724
  248  248  Swi6  18.501452117055894  31.095419507394983  23.356748158678773
  249  249  Swi6  18.635096987149836  21.45424343471783  22.386944498821762
  250  250  Swi6  25.083900231172255  13.716916348351665  28.322204862150876
  251  251  Swi6  35.08417853880169  25.44529167749491  39.49224020356052
  252  252  Swi6  28.983383714003292  2.067823192840737  18.846930518894684
  253  253  Swi6  48.529478469826024  28.525484821830986  11.88572318438032
  254  254  Swi6  44.827031130713294  37.02231137364437  3.8748466320493273
  255  255  Swi6  14.330073992197873  2.5460121502836173  9.567076046464607
  256  256  Swi6  8.977667542696501  28.56449366311551  26.838071400971273
  257  257  Swi6  6.986854255519197  31.449418984404794  33.68229767286998
  258  258  Swi6  23.07442998932338  11.560101942694585  47.59810779772427
  259  259  Swi6  10.647411677729668  32.29164222670741  39.210146976329966
  260  260  Swi6  40.55817323728135  33.27753032808048  15.675611784111533
  261  261  Swi6  21.389265601912737  48.3455061364734  47.966679157652756
  262  262  Swi6  35.20878296033241  20.164429737041818  22.65622856071045
  263  263  Swi6  5.556025272507604  32.56358489225819  24.248155332575354
  264  264  Swi6  26.965843914992252  42.382664581885926  17.69051153153098
  265  265  Swi6  18.678396319511368  20.09312727610349  43.333694316940374
  266  266  Swi6  23.65186599066498  12.255354841289567  15.634498308752493
  267  267  Swi6  27.402737035595493  34.92347578180717  45.31870440477386
  268  268  Swi6  15.910486185640057  49.43773869723954  14.471948344910217
  269  269  Swi6  4.198317797500653  46.00704685416096  21.984219405567366
  270  270  Swi6  43.94891944771734  33.48644586042866  7.015272255757327
  271  271  Swi6  3.4892777436472797  10.36934308264767  24.55740993757889
  272  272  Swi6  36.85503285945868  26.28714465650296  5.7297998705336095
  273  273  Swi6  12.034560689990418  1.8115723519150908  37.804745152301145
  274  274  Swi6  47.52222578195449  21.47426172608044  39.9242825261634
  275  275  Swi6  14.886015360083714  25.225359154297813  36.174837105996744
  276  276  Swi6  25.851828621281836  13.024583472860897  20.127594326264415
  277  277  Swi6  44.50046286035478  29.80475835225268  43.85990247251485
  278  278  Swi6  47.20973290848109  25.090108836396386  47.95114293022811
  279  279  Swi6  22.957827600079217  38.10804357665867  16.449400618886877
  280  280  Swi6  3.503918308114335  46.23775413384607  41.7942004980303
  281  281  Swi6  47.519366036328066  34.32665370896021  38.586428139828826
  282  282  Swi6  10.014551483893001  24.442350164548614  8.681588916110195
  283  283  Swi6  2.8114236641645176  23.33473280200123  44.596634188996795
  284  284  Swi6  17.973015888824786  31.382322721195454  2.8166922646482457
  285  285  Swi6  32.390333071448424  25.159750630120048  45.44984187790114
  286  286  Swi6  3.316129748378716  14.56444866391428  7.74618296476714
  287  287  Swi6  22.387499548681397  16.6379350528739  30.263938965015548
  288  288  Swi6  18.351760376714406  47.69557883997075  29.15552102555848
  289  289  Swi6  45.81958323524024  3.467755972889167  14.979433389466156
  290  290  Swi6  28.790630493742523  28.24394487071846  33.25634056317496
  291  291  Swi6  27.042746739334618  20.38664437633856  9.438653374532317
  292  292  Swi6  8.206151686724702  48.30587951028461  38.131613723131515
  293  293  Swi6  32.354012669675406  35.20508982265965  11.462084563479635
  294  294  Swi6  7.875515023136434  41.89557880605132  8.462002332605401
  295  295  Swi6  24.838455499513746  3.1453410030888573  4.195558343187844
  296  296  Swi6  46.615680694436726  31.474448745143647  21.643023510654103
  297  297  Swi6  6.416494401241071  42.659928514067964  18.690316905704062
  298  298  Swi6  4.643473580421282  47.28824852604727  47.12445632576384
  299  299  Swi6  1.4192819897230056  15.496832793561158  12.042380140511701
  300  300  Swi6  28.79948613600533  25.564963790262688  46.16257635134692
  301  301  Swi6  11.9059400126704  2.169113878186936  42.268178887832086
  302  302  Swi6  14.1066803950211  17.574996403557716  33.29687637222106
  303  303  Swi6  45.1798152710089  5.31780153490891  4.943909587647209
  304  304  Swi6  30.59260565207178  19.88018616392719  18.2272002713143
  305  305  Swi6  39.71362819228708  26.337436049071382  4.450793098161482
  306  306  Swi6  21.94657883535238  15.117527480554848  5.021615394729634
  307  307  Swi6  26.20974068444759  18.556807959719087  26.315960537877125
  308  308  Swi6  33.54147273419953  31.50887489051184  46.65775909970337
  309  309  Swi6  42.518666556037275  9.845615240309133  23.066227386862096
  310  310  Swi6  39.801555381450775  27.762270623847048  25.945651730120023
  311  311  Swi6  32.229362335867215  28.138337162244877  39.60471248965634
  312  312  Swi6  10.243336535413697  31.576140054195093  45.387417139993964
  313  313  Swi6  23.86705674936932  26.699690556481137  45.53838638646398
  314  314  Swi6  27.42247530536534  9.216887339935665  7.468808988906124
  315  315  Swi6  30.287693878378622  13.130002798690757  19.23678292527344
  316  316  Swi6  36.015704148462895  10.375571027259644  3.519746803138604
  317  317  Swi6  7.089243078266939  11.287442214376219  38.898675209687276
  318  318  Swi6  37.79206009948708  9.686908934775179  33.25173556421841
  319  319  Swi6  12.471533818157168  24.180461189705998  41.487252191625416
  320  320  Swi6  37.86742114445515  12.515380010405089  39.70902388898452
  321  321  Swi6  40.431566154255265  47.7789951640927  7.029484623094988
  322  322  Swi6  33.97267502948505  27.675708149725764  31.978961789120635
  323  323  Swi6  37.012971601637425  41.7483647555875  27.190015958220602
  324  324  Swi6  45.00623786817958  25.396014237608227  29.034856503077613
  325  325  Swi6  19.7581943087712  23.6881498249664  21.391651472779913
  326  326  Swi6  23.110340034068006  45.551829775577566  3.1848277354877235
  327  327  Swi6  24.65249381736157  48.62947389321897  30.830266855587247
  328  328  Swi6  2.691932473078228  49.430758552874586  29.11842771353106
  329  329  Swi6  5.659469948873865  19.18909722209372  17.453713777625072
  330  330  Swi6  1.328701681193364  46.042671598834794  45.7622464519261
  331  331  Swi6  25.230103832556367  18.28365211885455  30.040846647342306
  332  332  Swi6  44.63225064307068  42.30509073823278  8.449317214089245
  333  333  Swi6  43.44173219293999  30.04123299402989  10.737507985289737
  334  334  Swi6  15.145775788382295  24.59172047885926  40.45135465368824
  335  335  Swi6  7.106889454127758  19.735878879561668  20.920397474476662
  336  336  Swi6  46.76954333050709  5.413623312772086  34.567613910763335
  337  337  Swi6  19.54590362524232  17.204207869102067  2.2525820438975606
  338  338  Swi6  37.170500185933726  24.62163049389553  33.15906275653256
  339  339  Swi6  9.44130718146067  32.585306734134164  35.645150027940225
  340  340  Swi6  19.047823097204343  24.89222391213599  10.647073943973242
  341  341  Swi6  19.729270821713687  11.033885710618192  21.33894106885027
  342  342  Swi6  36.98597824266349  29.281060203565108  12.563135531937787
  343  343  Swi6  21.25400776540232  25.021163811417647  5.346228803503922
  344  344  Swi6  32.00499941820844  8.876906813271972  24.786586767533453
  345  345  Swi6  4.654811679486666  40.20438034704999  2.939859197020533
  346  346  Swi6  38.143676821784894  49.14909792449003  13.940190171322897
  347  347  Swi6  23.161129719130614  21.450590103424428  19.91894101071857
  348  348  Swi6  45.34383683401883  11.370830702850217  23.548481257548758
  349  349  Swi6  17.22227687417353  17.019790844139294  4.40152708483927
  350  350  Swi6  36.451782540706546  4.07781340220502  14.036598638907337
  351  351  Swi6  47.5938135865548  46.85590588342311  12.843112984853311
  352  352  Swi6  27.819213401597786  11.629943881057326  49.97292443638142
  353  353  Swi6  18.800580917979314  17.273007142650247  27.467825776389958
  354  354  Swi6  35.03754652160067  15.753423733270226  49.58118851161856
  355  355  Swi6  42.50345559894095  35.54635389743697  6.5689890248479434
  356  356  Swi6  35.380939959120454  49.15072895817925  48.21049671761083
  357  357  Swi6  9.593242801998924  10.070029255336095  13.134739025028372
  358  358  Swi6  20.554581291611193  3.575714646807828  21.112735669287034
  359  359  Swi6  38.36153936553618  47.24162431964091  49.91487485776246
  360  360  Swi6  4.5616895880528485  7.264700056175206  42.0854181765907
  361  361  Swi6  1.993712208235755  33.04599454422537  30.50247457844366
  362  362  Swi6  43.13385093863939  11.593045168980955  44.24847224781808
  363  363  Swi6  24.79783456773186  3.112790304713603  3.091247819894554
  364  364  Swi6  5.21710118618421  11.891975544876308  41.678506507693285
  365  365  Swi6  45.03808540469515  7.358843668858464  11.277719755218648
  366  366  Swi6  18.736418860981612  33.85208668984126  27.95271353978174
  367  367  Swi6  34.77693877831762  44.023554791126706  34.26430146548012
  368  368  Swi6  4.161228272511427  32.259461509617466  6.479496952537017
  369  369  Swi6  33.44013003796896  48.639752483122265  38.130970351116616
  370  370  Swi6  5.5460349186279085  2.1569261356933875  5.379760863431968
  371  371  Swi6  2.5399707284323236  36.95361934611139  4.455660809377491
  372  372  Swi6  27.943940911077572  46.91974106457071  6.206190642505741
  373  373  Swi6  43.13089080066195  2.287109387860016  48.04788976026829
  374  374  Swi6  13.376104854448885  1.1989618194895197  19.05119219976598
  375  375  Swi6  2.5971770089646986  3.325969883544419  16.475260069574325
  376  376  Swi6  48.72084497121463  14.258626254097738  22.264875859700076
  377  377  Swi6  43.38056143032512  38.08129820976536  47.14200680709407
  378  378  Swi6  37.813712908808036  12.136551443769912  31.48473152109493
  379  379  Swi6  28.49659902305213  9.436446319070505  14.169433928688047
  380  380  Swi6  49.75677805578743  28.13336788307401  40.283523388626705
  381  381  Swi6  24.617734732277974  4.794331383886075  15.826752069055031
  382  382  Swi6  8.693519418381612  37.63434494488803  14.580972835845845
  383  383  Swi6  33.13218849658247  27.20273424990282  36.72010729391647
  384  384  Swi6  36.425477597458155  38.17699110520197  18.428237622267527
  385  385  Swi6  28.97180624477438  17.577786153517028  6.216345559563944
  386  386  Swi6  19.670159247230913  15.70836517970114  27.83152895317402
  387  387  Swi6  28.054135504235933  24.163614241660156  21.8882338032564
  388  388  Swi6  33.56342358727584  1.0540144254343977  4.93545884850619
  389  389  Swi6  49.8916837138325  24.122600573870972  47.612249241420564
  390  390  Swi6  6.287694070710965  5.712559356134607  27.14310861128736
  391  391  Swi6  2.923795981719141  12.73164024614025  44.398655492268794
  392  392  Swi6  1.879088865162327  6.74028410398344  7.506699233222644
  393  393  Swi6  2.9120823941877396  21.124847570068404  31.623560123966026
  394  394  Swi6  41.01607854338126  33.50450426681648  19.118328293718857
  395  395  Swi6  20.840350514264067  26.950789926396727  16.089275014832474
  396  396  Swi6  18.202160741729497  30.02364204913294  24.629916721444427
  397  397  Swi6  31.073659452946643  21.6849715085908  5.364252353283836
  398  398  Swi6  37.704829974576896  20.83609198272136  31.253942347432595
  399  399  Swi6  37.40133367762864  16.660564130392984  15.784300956738237
  400  400  Swi6  44.81489290428275  37.19762420018636  45.83125854663928
  401  401  Swi6  14.678121508641512  25.77170863188755  8.464688901964983
  402  402  Swi6  32.69389288438758  31.179093815818295  39.14959923795733
  403  403  Swi6  9.783674263506137  49.58939491028018  33.67336443504748
  404  404  Swi6  17.95390692577581  44.95313497141828  43.163833529129185
  405  405  Swi6  25.16550095810572  45.57393954468332  32.91900916455387
  406  406  Swi6  35.95824548936411  40.12613702294114  31.45616977472035
  407  407  Swi6  16.123133283479973  33.888586861696574  14.801007579244637
  408  408  Swi6  38.9464435540789  41.910397847601615  49.806405529584644
  409  409  Swi6  30.84560544885187  11.340997103787586  38.18715090187817
  410  410  Swi6  43.02819565766361  14.861088045219496  6.596010147156814
  411  411  Swi6  24.95932239924409  49.76663959828795  35.18630215668277
  412  412  Swi6  10.90939751782321  11.717844825344576  29.092269131132223
  413  413  Swi6  38.186835330754455  16.525761794245085  39.20962118132155
  414  414  Swi6  17.092926376032334  3.838945066119985  26.3109080772342
  415  415  Swi6  38.60693203897773  5.224440860801821  19.604837226414165
  416  416  Swi6  5.91202606958579  16.474453672437946  11.86842544885069
  417  417  Swi6  38.72204111686678  46.038416461448556  42.70053295633613
  418  418  Swi6  31.33209529306865  36.9762248621514  38.12276063085949
  419  419  Swi6  10.611458069927847  4.168824421204626  27.369888214856395
  420  420  Swi6  22.69091142860399  37.68928987081904  19.585120689100545
  421  421  Swi6  33.25893661658978  27.972576997152647  44.01815259046027
  422  422  Swi6  28.494853059602512  33.39286707741662  40.98687944071455
  423  423  Swi6  34.4163802907725  19.426907952179196  12.003640718518783
  424  424  Swi6  37.94290711730444  26.973248269504904  10.015101090017167
  425  425  Swi6  49.832583713007  16.478614884386474  12.942695830804157
  426  426  Swi6  9.109868839766243  35.97726511061778  2.085170200413116
  427  427  Swi6  48.635336106613224  28.189593538565653  7.5866644734944115
  428  428  Swi6  30.66205925278311  24.63932608871308  19.595937079608202
  429  429  Swi6  20.445869166645817  39.36375545837612  25.966543647100746
  430  430  Swi6  32.09701278272679  18.18110736674952  34.27519496388048
  431  431  Swi6  47.87031367173293  20.9516746561202  42.262789080823964
  432  432  Swi6  19.40465632673377  27.251695519127566  25.887563774347484
  433  433  Swi6  3.143773711760831  1.928662970338734  15.968603302562608
  434  434  Swi6  37.640413148079126  2.8651808278041053  29.502771088805027
  435  435  Swi6  39.19294046059454  38.86724498932668  5.9718322870097795