# Initialisation file of the particles

480  atoms
79  bonds

5  atom types
1  bond types

0.0000   50.0000 xlo xhi
0.0000   50.0000 ylo yhi
0.0000   50.0000 zlo zhi

Atom Type Labels

1    A
2    U
3    M
4    Swi6
5    Swi6M

Bond Type Labels

1    Normal

Masses

1    1.00 
2    1.00 
3    1.00 
4    1.00 
5    1.00 

Atoms

  1  1  A  10.0  10.0  10.0
  2  2  A  10.6  10.6  10.6
  3  3  A  11.2  11.2  11.2
  4  4  A  11.8  11.8  11.8
  5  5  U  12.4  12.4  12.4
  6  6  A  13.0  13.0  13.0
  7  7  A  13.6  13.6  13.6
  8  8  U  14.2  14.2  14.2
  9  9  A  14.8  14.8  14.8
  10  10  A  15.399999999999999  15.399999999999999  15.399999999999999
  11  11  A  16.0  16.0  16.0
  12  12  A  16.6  16.6  16.6
  13  13  A  17.2  17.2  17.2
  14  14  A  17.8  17.8  17.8
  15  15  A  18.4  18.4  18.4
  16  16  U  19.0  19.0  19.0
  17  17  U  19.6  19.6  19.6
  18  18  A  20.2  20.2  20.2
  19  19  A  20.799999999999997  20.799999999999997  20.799999999999997
  20  20  A  21.4  21.4  21.4
  21  21  A  22.0  22.0  22.0
  22  22  A  22.6  22.6  22.6
  23  23  A  23.2  23.2  23.2
  24  24  A  23.799999999999997  23.799999999999997  23.799999999999997
  25  25  A  24.4  24.4  24.4
  26  26  U  25.0  25.0  25.0
  27  27  A  25.6  25.6  25.6
  28  28  A  26.2  26.2  26.2
  29  29  A  26.8  26.8  26.8
  30  30  A  27.4  27.4  27.4
  31  31  A  28.0  28.0  28.0
  32  32  A  28.599999999999998  28.599999999999998  28.599999999999998
  33  33  A  29.2  29.2  29.2
  34  34  A  29.8  29.8  29.8
  35  35  A  30.4  30.4  30.4
  36  36  A  31.0  31.0  31.0
  37  37  A  31.599999999999998  31.599999999999998  31.599999999999998
  38  38  A  32.2  32.2  32.2
  39  39  A  32.8  32.8  32.8
  40  40  A  33.4  33.4  33.4
  41  41  A  34.0  34.0  34.0
  42  42  A  34.599999999999994  34.599999999999994  34.599999999999994
  43  43  A  35.2  35.2  35.2
  44  44  A  35.8  35.8  35.8
  45  45  A  36.4  36.4  36.4
  46  46  A  37.0  37.0  37.0
  47  47  U  37.599999999999994  37.599999999999994  37.599999999999994
  48  48  A  38.2  38.2  38.2
  49  49  A  38.8  38.8  38.8
  50  50  A  39.4  39.4  39.4
  51  51  U  40.0  40.0  40.0
  52  52  A  40.599999999999994  40.599999999999994  40.599999999999994
  53  53  A  41.2  41.2  41.2
  54  54  U  41.8  41.8  41.8
  55  55  A  42.4  42.4  42.4
  56  56  A  43.0  43.0  43.0
  57  57  A  43.6  43.6  43.6
  58  58  A  44.199999999999996  44.199999999999996  44.199999999999996
  59  59  A  44.8  44.8  44.8
  60  60  A  45.4  45.4  45.4
  61  61  A  46.0  46.0  46.0
  62  62  A  46.6  46.6  46.6
  63  63  A  47.199999999999996  47.199999999999996  47.199999999999996
  64  64  A  47.8  47.8  47.8
  65  65  A  48.4  48.4  48.4
  66  66  A  49.0  49.0  49.0
  67  67  A  49.6  49.6  49.6
  68  68  A  50.199999999999996  50.199999999999996  50.199999999999996
  69  69  A  50.8  50.8  50.8
  70  70  A  51.4  51.4  51.4
  71  71  A  52.0  52.0  52.0
  72  72  A  52.6  52.6  52.6
  73  73  A  53.199999999999996  53.199999999999996  53.199999999999996
  74  74  A  53.8  53.8  53.8
  75  75  A  54.4  54.4  54.4
  76  76  A  55.0  55.0  55.0
  77  77  A  55.6  55.6  55.6
  78  78  A  56.199999999999996  56.199999999999996  56.199999999999996
  79  79  U  56.8  56.8  56.8
  80  80  A  57.4  57.4  57.4
  81  81  Swi6  7.324328809237991  44.162501116962915  24.962281032757094
  82  82  Swi6  12.863221072124608  19.757463742155494  29.256471843403993
  83  83  Swi6  33.36533802755995  4.822096332657955  40.92668099768462
  84  84  Swi6  9.040224343151449  28.668727933116113  28.886145262261596
  85  85  Swi6  13.138071707157605  20.63313457888954  9.261991568080093
  86  86  Swi6  33.681563856893675  8.133116054078066  5.997293298229573
  87  87  Swi6  17.511514013170874  18.861660836836084  7.670733175291783
  88  88  Swi6  33.55872156703852  48.25538957515713  22.944616206514514
  89  89  Swi6  46.99380316620295  26.49985892261613  18.511954198280822
  90  90  Swi6  9.662878677480892  48.206793643253704  49.97193916831054
  91  91  Swi6  20.180310165178593  49.00194399141799  48.326853754765324
  92  92  Swi6  16.4560530897404  25.128428165690607  35.745245885189426
  93  93  Swi6  12.325752751358976  1.418875456586659  6.339778326572017
  94  94  Swi6  48.03377532743636  41.16557049732625  13.25451109256035
  95  95  Swi6  23.30049273841744  8.935126015583547  41.230379064123476
  96  96  Swi6  27.576799350422405  29.528606647754636  5.939959123138579
  97  97  Swi6  26.610310940101535  3.062976269266929  7.8541104786416085
  98  98  Swi6  8.067771859023535  29.087114029994723  9.248369347890618
  99  99  Swi6  29.243809538239688  15.554135858432986  9.526357266153799
  100  100  Swi6  31.80932661427863  28.94951580820244  28.073823950067847
  101  101  Swi6  3.4715795369226594  44.559627181291376  25.07457596506336
  102  102  Swi6  28.910926218721414  44.44536254329468  29.59954974047598
  103  103  Swi6  17.406964633479703  6.30285240172749  44.01590421976651
  104  104  Swi6  19.737007134388193  27.450992754364016  34.53934077076216
  105  105  Swi6  40.309612996796524  29.841896505184565  11.01342537718785
  106  106  Swi6  29.109956818854897  22.28356181184197  35.90784575634187
  107  107  Swi6  21.747036958297254  20.430733638932878  31.05480132993043
  108  108  Swi6  41.69779438567074  11.963878416764901  45.37624762769183
  109  109  Swi6  6.499971779476702  31.949574737258242  2.221074162021611
  110  110  Swi6  6.259187263985623  37.77140212614632  45.66156477897437
  111  111  Swi6  42.88740216106809  36.07358672149461  15.884678113295344
  112  112  Swi6  33.150477234459444  9.860450647191987  41.86592917632248
  113  113  Swi6  36.02547257419961  42.03836251142483  39.15054729126877
  114  114  Swi6  37.05792871637044  18.138704965053275  10.450661281182645
  115  115  Swi6  34.325610125697686  27.639950140304283  39.871946532222815
  116  116  Swi6  33.405945252466395  15.847430089549658  29.598318329166208
  117  117  Swi6  13.88667025708295  24.384183934130974  43.36945364787262
  118  118  Swi6  12.245875176452438  28.158035009248362  49.066239706745215
  119  119  Swi6  44.63551741434739  15.657130747149948  42.23801655424088
  120  120  Swi6  19.99559959823994  35.766736195010544  17.9128384950952
  121  121  Swi6  29.41911719504399  25.007085931675363  49.7544210308814
  122  122  Swi6  25.374359199577185  19.36763366418785  49.244455814480354
  123  123  Swi6  11.17088165150624  26.61785177321589  29.127958473287308
  124  124  Swi6  48.040067503244394  10.592450142315093  32.07541299725419
  125  125  Swi6  36.01887136490288  19.55422606651045  25.69720584522549
  126  126  Swi6  23.619254682661087  43.793123957185784  36.884854305870554
  127  127  Swi6  49.89898270086804  24.522816691313686  4.980768649110924
  128  128  Swi6  30.647343773630528  11.722866161495116  35.668616942611266
  129  129  Swi6  28.47938337966977  29.69618652257347  44.560928913534454
  130  130  Swi6  16.055128287690103  20.204529983621807  11.949526558240997
  131  131  Swi6  1.305363945547913  19.144433364396427  16.84546609476552
  132  132  Swi6  6.741707019777895  15.937502113260948  5.693760141414183
  133  133  Swi6  31.803580106200947  38.473044995232755  25.101336914656333
  134  134  Swi6  10.731919023992555  24.75115123529021  38.430104071133236
  135  135  Swi6  46.49395083834661  49.66592227076824  24.13610946715936
  136  136  Swi6  22.330631560618556  3.8546130282284565  23.727900215279327
  137  137  Swi6  6.344198810924098  5.350035644892133  49.87057558033465
  138  138  Swi6  13.244047503839678  40.95185495241969  12.137194361018041
  139  139  Swi6  32.3007752143609  37.90458634613543  6.608351277169924
  140  140  Swi6  25.675644212397057  5.116468270482771  34.488357598310785
  141  141  Swi6  21.6043488688199  27.099708972770216  3.7179292468832745
  142  142  Swi6  27.453557966044563  46.892302564315024  17.944757554265085
  143  143  Swi6  35.38870422469859  8.881151420849733  18.844449937156895
  144  144  Swi6  9.912624000725923  25.73882118143202  20.06736759980808
  145  145  Swi6  20.572486657117203  41.79007082467183  6.995059684417068
  146  146  Swi6  20.466405207035244  21.836972165547863  19.415135577038708
  147  147  Swi6  9.899316450580356  24.77903784952147  14.161346346689973
  148  148  Swi6  45.81723606233448  12.36588417716041  14.572783652981034
  149  149  Swi6  45.301540816614654  31.59733324260092  42.641970096900735
  150  150  Swi6  10.60364892862963  36.2140920845691  38.889467119815606
  151  151  Swi6  9.679212070951223  29.578572471887618  21.996753886410513
  152  152  Swi6  37.67240709550217  11.518024815356027  12.20432643332169
  153  153  Swi6  9.980726322485157  42.668768203410025  48.4360241041653
  154  154  Swi6  22.68158296629922  11.29985925933835  6.1651850214963275
  155  155  Swi6  20.84132076267373  2.04296142351314  12.221436311133498
  156  156  Swi6  16.033170197910437  27.358891880018632  28.16869434450512
  157  157  Swi6  8.611206456622597  37.85417308017619  48.56538275039779
  158  158  Swi6  15.53654673329649  43.494017703091004  49.864925858498474
  159  159  Swi6  45.185688048754415  18.644604586015312  25.277318626263337
  160  160  Swi6  39.807457252518844  36.60366376483684  13.551362776030402
  161  161  Swi6  15.598164442629919  46.43207380477673  42.23139887144905
  162  162  Swi6  24.082774114775045  47.73668155274425  38.65572991667
  163  163  Swi6  7.353684046469065  24.417300147213908  4.080041098019226
  164  164  Swi6  4.704413196516959  26.788703923646327  29.355185535830742
  165  165  Swi6  39.1637250541942  19.264526524734467  18.84220035303968
  166  166  Swi6  5.012849313787297  27.22775387434526  16.635374392096033
  167  167  Swi6  41.9299615293304  31.727768749797505  41.02210996639491
  168  168  Swi6  44.20821075144964  25.589707405029  45.562932989150966
  169  169  Swi6  47.18511589078552  21.476966336843233  39.2033351495243
  170  170  Swi6  14.269914108499155  40.06869095526379  19.025376350669895
  171  171  Swi6  6.913802400286057  17.345071976734886  13.357813929309984
  172  172  Swi6  29.86539767013648  23.26808423735036  25.743949524048382
  173  173  Swi6  31.419592116164484  38.85495588247629  31.651288730228952
  174  174  Swi6  3.5374966189124306  19.20543055320132  36.957163744221766
  175  175  Swi6  7.853214663687088  9.422498456438834  6.535431615747125
  176  176  Swi6  10.53420920078048  21.86273692105248  30.957653638527898
  177  177  Swi6  2.8113048208816425  15.817086927983722  31.242996552774663
  178  178  Swi6  4.13008183723792  22.08537545832668  11.448312823181448
  179  179  Swi6  18.18777386334319  16.86222205686977  34.44692022111179
  180  180  Swi6  48.68432573833169  1.0185647207138921  3.218109518338984
  181  181  Swi6  42.076312871931705  30.236077024655188  46.95571682165004
  182  182  Swi6  18.69519992562344  38.45476044962712  26.05690887287433
  183  183  Swi6  18.368040041393833  38.54388507054974  37.508735473709976
  184  184  Swi6  47.71318020081341  6.074884506388115  23.06320352933015
  185  185  Swi6  32.183817348047384  44.16050061611257  16.893688105580203
  186  186  Swi6  11.930445759017454  11.580055412079876  30.599533068486345
  187  187  Swi6  10.247371496724703  3.9420977271883877  37.44437903239487
  188  188  Swi6  4.8463460683642  40.27685126575206  19.02676623460598
  189  189  Swi6  33.9224787278997  9.39576652274913  6.516668727703599
  190  190  Swi6  11.526613891891767  9.431690928592431  39.759322861295345
  191  191  Swi6  24.82087038008305  22.68613518302505  27.378310717551802
  192  192  Swi6  39.98410544140972  20.42813953640419  43.978915689760996
  193  193  Swi6  31.19316401616162  40.13687347643955  23.74184920003382
  194  194  Swi6  26.918496261048425  11.000413086291477  42.841832299522096
  195  195  Swi6  40.510183163872334  27.354566639727942  20.52137164554123
  196  196  Swi6  36.43488584636168  9.245174188877758  25.335316978308253
  197  197  Swi6  34.77325197659942  30.086026075091436  32.25223284107993
  198  198  Swi6  3.28535692077756  45.06058722761441  32.078675189456
  199  199  Swi6  25.508664360319166  11.3938219428182  25.935556024974296
  200  200  Swi6  39.54550956788284  21.91551274972244  16.337145230938667
  201  201  Swi6  16.18873855501147  43.001964067464606  6.561673603545279
  202  202  Swi6  38.830384201407945  33.20409138579582  32.33895205059504
  203  203  Swi6  1.2810499548407344  15.034709044301788  35.053805067288444
  204  204  Swi6  26.80172279608893  37.22891765284788  45.26076113617554
  205  205  Swi6  46.539154991563336  12.807916708193273  36.703606966773485
  206  206  Swi6  24.03023071533665  35.55864942779038  10.717195104215195
  207  207  Swi6  33.70206052532197  6.375465638189718  5.508878448427152
  208  208  Swi6  37.29068179010881  6.779456532697358  21.41357514162969
  209  209  Swi6  23.25365896693814  38.727176255427636  12.827227010066485
  210  210  Swi6  11.484224562954198  49.621367231725  18.85710317314113
  211  211  Swi6  45.53449219597155  12.187074875432161  7.480212552339865
  212  212  Swi6  15.942097778020965  23.704595149202138  32.350860323442525
  213  213  Swi6  40.972579050755634  9.593974064350064  6.532950221617469
  214  214  Swi6  15.635356047053067  23.855483454942505  20.521833646826757
  215  215  Swi6  34.48395281651302  40.78282589256174  27.020388226734745
  216  216  Swi6  34.513832737365966  41.79836390538789  44.08972604320312
  217  217  Swi6  38.49096646394174  13.805384688511865  22.203660966789545
  218  218  Swi6  29.48096875762432  3.7144212873588285  25.82849414810737
  219  219  Swi6  31.203454067830318  2.675055771361297  22.047081477055446
  220  220  Swi6  34.747884103405525  34.28901171605109  4.161131665424734
  221  221  Swi6  21.140376289617222  48.95629129982399  40.10177571594456
  222  222  Swi6  43.65019138995314  19.140578330048427  45.84334876108766
  223  223  Swi6  13.955137953695559  22.66320412499806  37.87074527572655
  224  224  Swi6  24.978259573068062  33.88806822008108  15.256737001333672
  225  225  Swi6  19.220145585910068  15.939637602072612  36.64872668398573
  226  226  Swi6  30.24606621605178  21.89007751060751  11.449731562908363
  227  227  Swi6  43.2445206762209  41.882655508584484  36.56563714272568
  228  228  Swi6  28.74430665285476  48.895351724575775  31.265578111289372
  229  229  Swi6  21.40933766171366  5.9537517824949315  47.952443021675194
  230  230  Swi6  9.668248894063018  44.51798356092246  33.85598439555402
  231  231  Swi6  1.7687775315502963  6.635256655083546  49.16029889291243
  232  232  Swi6  17.601022656616475  10.008351423610055  1.851257298537436
  233  233  Swi6  22.6582736917516  22.037815421074406  10.492594046447264
  234  234  Swi6  39.2078604257001  37.9657578398108  39.39912318905174
  235  235  Swi6  30.154617394228932  29.803407782067328  5.6956829200143115
  236  236  Swi6  33.06450910691518  11.911712642578177  8.108487510647254
  237  237  Swi6  37.98457807066946  42.575225691472426  12.776186119834142
  238  238  Swi6  14.47395410026319  6.28263115645034  9.28487804576655
  239  239  Swi6  18.720004738723333  23.40280340177721  22.418942142944903
  240  240  Swi6  17.879921684693084  4.499043324877766  16.551999695135763
  241  241  Swi6  2.6365555823088456  34.49336909118882  33.86277388868321
  242  242  Swi6  38.60964803117353  46.38952550241463  6.7286932777414
  243  243  Swi6  19.27528884483763  33.96726360706808  34.13228754901714
  244  244  Swi6  1.8257448746145357  37.233650053891786  23.323170836731627
  245  245  Swi6  10.426042078327214  49.65996306388363  18.35071658384975
  246  246  Swi6  33.03672553242108  48.17058531508257  2.2244767816139808
  247  247  Swi6  43.82416829955283  24.686637213881117  39.78986731730276
  248  248  Swi6  27.74090703475631  1.4143901693568803  41.19648048018117
  249  249  Swi6  45.075743921010925  40.190176098860775  15.793873369128931
  250  250  Swi6  47.12202913532811  19.313722895681366  22.220003546798537
  251  251  Swi6  43.03250644915779  45.254428691093054  1.7426546656307118
  252  252  Swi6  1.024500838956636  38.00312806729758  28.02073154607808
  253  253  Swi6  15.396291782497281  44.851888972579054  44.41340505587242
  254  254  Swi6  39.09729477586452  14.712180669988312  4.941794771954978
  255  255  Swi6  25.818619861987344  34.02887993564962  22.919082715036637
  256  256  Swi6  25.333102617532234  12.548745120515244  17.127200307601086
  257  257  Swi6  35.98916052060089  29.53660546533092  34.13594861747692
  258  258  Swi6  29.725459282122717  17.49246989893678  1.1664037656747126
  259  259  Swi6  10.091657649843587  20.043284623054262  14.707374867760212
  260  260  Swi6  44.23795526788533  36.96988191235186  4.12002587165714
  261  261  Swi6  38.49335693048916  14.446182664074978  3.2914347160752464
  262  262  Swi6  1.651836788550061  44.01448395590883  6.906206145091759
  263  263  Swi6  30.540128156304693  23.66250646278755  47.26774601043775
  264  264  Swi6  10.131669581989584  42.25832717624241  2.6672317435897117
  265  265  Swi6  5.971804729860202  49.45236745784754  25.26504209880838
  266  266  Swi6  8.248760478081405  49.17515669071068  44.63015494136083
  267  267  Swi6  37.23028819797943  41.12293410229841  12.433605389170332
  268  268  Swi6  12.13723600069085  37.41490711544226  46.45472149905132
  269  269  Swi6  44.44331743659598  44.165022912032335  36.92625928338415
  270  270  Swi6  42.278386567198076  32.46128757094988  17.171455081195216
  271  271  Swi6  33.60377728909216  33.28348415839279  41.034660410823655
  272  272  Swi6  26.094212416227528  16.07430209731782  8.936142247879662
  273  273  Swi6  34.63163033407313  45.938370288570034  6.045917025666624
  274  274  Swi6  22.008886419475633  28.925666874148607  6.091792083639974
  275  275  Swi6  43.06965852034512  5.3106538449298855  47.50307729136207
  276  276  Swi6  23.297274523922955  5.9743680489218205  29.034959312131818
  277  277  Swi6  23.160624464502085  20.221871166706794  8.82373317954724
  278  278  Swi6  12.822494897911898  6.565832097806167  26.17354904931973
  279  279  Swi6  4.781487178027401  22.853828893661476  18.472480399565775
  280  280  Swi6  44.102944282885844  44.68218376065789  11.222997355150795
  281  281  Swi6  32.01883290426707  17.060048691022022  7.76205562835064
  282  282  Swi6  38.863308340989825  45.52557370654849  40.0352230234008
  283  283  Swi6  7.489809191233497  7.972135178472052  42.78061167022213
  284  284  Swi6  2.3992862537933872  24.235593318607453  26.53494845915066
  285  285  Swi6  44.18429313479186  29.005240306061722  24.431334882974195
  286  286  Swi6  21.625510765912672  8.192311433571433  38.84770502509644
  287  287  Swi6  36.097998357798886  35.789357279495505  44.24449603943516
  288  288  Swi6  17.77369214977036  47.06205014818265  7.365387162652358
  289  289  Swi6  35.62807404960185  45.88065198245543  20.471222785977126
  290  290  Swi6  3.56564528008808  16.448434489974122  41.41112818417815
  291  291  Swi6  10.48307415445977  43.16324447498957  24.380078539004415
  292  292  Swi6  30.141264422351778  19.753052669197587  15.948925846084435
  293  293  Swi6  9.18722488207247  7.776377839781857  13.159713170599916
  294  294  Swi6  17.174932628358608  25.90272044070246  32.21893294135384
  295  295  Swi6  48.222001380832026  47.316650245994694  2.1042716247182778
  296  296  Swi6  4.836166526888835  14.554622671873387  13.070298002924911
  297  297  Swi6  2.96469877606898  41.59084716805063  47.81549990752649
  298  298  Swi6  7.972756814161639  23.593177094402726  27.569010878541146
  299  299  Swi6  41.81101894808721  16.525405220659373  25.68963908159531
  300  300  Swi6  31.396458156910118  17.381700938855275  42.89869390264667
  301  301  Swi6  45.11259695441662  18.1024640436963  17.95670229242021
  302  302  Swi6  47.315447950138605  45.98439547696012  18.899970326141382
  303  303  Swi6  35.09677941968939  27.002175822291925  5.321957957927605
  304  304  Swi6  25.39976937790833  9.319958367588542  31.460817032570276
  305  305  Swi6  36.2466300429929  45.91069284130852  43.55203719118788
  306  306  Swi6  10.991392857736237  21.645547466101952  29.22009100086645
  307  307  Swi6  29.428302813945336  38.20130228030072  34.06489605235986
  308  308  Swi6  31.166446721940005  42.12014517948904  32.75049264720178
  309  309  Swi6  8.985836741885915  42.50879272314618  48.56990375950738
  310  310  Swi6  42.61345622150715  45.49496049492225  1.0554693545862088
  311  311  Swi6  43.98726132028062  20.167203491295187  33.1012998563027
  312  312  Swi6  2.4319011375756974  4.9601169171979524  30.390946184181917
  313  313  Swi6  8.141431382222883  25.49098581915419  14.427810130714652
  314  314  Swi6  34.138240113613655  49.72815248333703  45.33271593145444
  315  315  Swi6  1.3723956992526845  33.072888582134695  22.216526027993073
  316  316  Swi6  38.67508352912328  3.212573414818129  39.25184142569475
  317  317  Swi6  10.78414385455872  20.50238870128978  29.91606886289714
  318  318  Swi6  39.57784064315433  10.430825345593792  7.184232910499439
  319  319  Swi6  49.09894386251074  17.59232557395627  25.715913458180594
  320  320  Swi6  49.66023704359689  10.864704139097856  23.283203828293463
  321  321  Swi6  17.465566796054816  32.339333147962925  45.98585823039037
  322  322  Swi6  33.565202474074795  35.658458928431  17.997033537635037
  323  323  Swi6  23.41727260136711  46.005048244942564  6.93395421593996
  324  324  Swi6  1.2961216692681257  28.19841337580666  21.192191705931087
  325  325  Swi6  43.959375876936846  2.328254549931685  21.930196329095708
  326  326  Swi6  41.089492642994976  39.231442265500135  49.61827032858434
  327  327  Swi6  20.392494317158167  23.59621790114127  8.803564454054461
  328  328  Swi6  39.462263362770315  26.573277721308077  4.983205176713497
  329  329  Swi6  17.513141629413887  19.639380654447944  33.10790658704008
  330  330  Swi6  17.15297181630046  32.32743259847832  32.29471108535046
  331  331  Swi6  49.69129682588615  21.92654514161884  7.135266617046474
  332  332  Swi6  27.401775417319406  32.812360470933754  1.6438903807769782
  333  333  Swi6  2.2282986891606487  13.380682930660603  25.62150570219783
  334  334  Swi6  46.07042481484167  21.52171005866564  47.57700802546305
  335  335  Swi6  8.748851440885447  47.50467506744336  3.5057041014420283
  336  336  Swi6  28.56487871114467  36.96084989075219  49.542100380891505
  337  337  Swi6  44.10727152319681  2.046142490455085  29.423846880835168
  338  338  Swi6  41.18170911051733  11.984504801236671  11.538541800408261
  339  339  Swi6  47.499563036169036  3.115525804968562  17.01802462257394
  340  340  Swi6  26.36203559846752  2.369514242249219  26.187060239490975
  341  341  Swi6  2.947461144197223  47.06875557234287  15.75445971536545
  342  342  Swi6  42.14656506759327  36.70518656002878  46.18540698210149
  343  343  Swi6  14.212654116189468  20.59196521019529  26.219720724000133
  344  344  Swi6  2.511685599763809  24.148065828110315  1.6686191012453706
  345  345  Swi6  46.674236533659126  1.5237663492249893  12.848780888691348
  346  346  Swi6  19.772951763419286  7.684261115611521  4.31487550538891
  347  347  Swi6  31.26653228979855  38.21139841808071  13.317040038688388
  348  348  Swi6  12.32614218997519  12.97220022438068  37.686737687749854
  349  349  Swi6  23.583095061966972  42.79675447072363  26.933459001042372
  350  350  Swi6  41.50244299504967  6.596405057691589  15.631893482171364
  351  351  Swi6  2.7523376229372802  41.8378749462701  38.23588717398698
  352  352  Swi6  41.27076458768511  8.259461865442983  39.73845511319811
  353  353  Swi6  27.59967960937416  45.6731607408599  7.2211558640706315
  354  354  Swi6  18.41912065793356  23.86172662890353  19.140937401185347
  355  355  Swi6  22.579129920291756  28.63290526132175  13.954157840684278
  356  356  Swi6  24.85315121633492  14.918435789364283  36.38909100672878
  357  357  Swi6  5.4757514022568055  21.34770193219554  40.894172460901686
  358  358  Swi6  18.0181903379171  49.34891638943929  9.83790599586912
  359  359  Swi6  13.900661090190313  22.730994953486633  22.785774910521997
  360  360  Swi6  21.8276168719352  45.864136841008744  47.70928531090539
  361  361  Swi6  18.347071642276383  3.6523639721967944  1.247227542272705
  362  362  Swi6  36.900735377528946  42.63400093955036  28.56976250213449
  363  363  Swi6  26.700043983882228  22.546886704624814  15.495729404649303
  364  364  Swi6  19.30316554817108  11.531886672570705  14.485839744280984
  365  365  Swi6  22.408425878535144  22.631814457405426  47.81252638998286
  366  366  Swi6  3.5433193766832094  26.334911881171696  18.253757880822935
  367  367  Swi6  19.63291790628481  37.696932786628146  46.01813359103792
  368  368  Swi6  2.295545932169264  21.86247354681037  20.498276284403257
  369  369  Swi6  6.559674957135726  21.1246606846393  31.247899188053847
  370  370  Swi6  44.288340952762994  20.633874626677798  47.87794031919516
  371  371  Swi6  18.933743973012238  31.617193028023813  26.253372647077803
  372  372  Swi6  32.141379274714716  7.112431325049504  14.368248068778161
  373  373  Swi6  18.42148141745978  27.294476623850443  11.26833307617899
  374  374  Swi6  46.791427779529506  2.1644854794999286  19.06730065920396
  375  375  Swi6  39.24143247367686  25.732852711438582  36.15422978598152
  376  376  Swi6  24.500143857263232  49.79814330070578  35.05552721710897
  377  377  Swi6  37.06228749636428  20.221159765422616  16.740396771536822
  378  378  Swi6  9.736371738407463  47.12802817611844  24.900869325220015
  379  379  Swi6  30.29602841674682  48.73477518375915  29.18729808368318
  380  380  Swi6  24.66917773968377  23.124487914372395  14.699166945642705
  381  381  Swi6  36.55677063583283  20.712959167720005  47.41108976404906
  382  382  Swi6  21.40476672690463  4.390738649360278  9.095303523319577
  383  383  Swi6  18.648493075651096  44.46044699239024  4.920571091432733
  384  384  Swi6  19.40629696259873  43.88567677996094  38.948059339850964
  385  385  Swi6  2.545465766204141  15.88344556464674  30.937316171920987
  386  386  Swi6  31.315199158817897  43.111058122047226  19.67860868310433
  387  387  Swi6  15.946755720595915  11.346317244920154  28.02454245094342
  388  388  Swi6  6.583237729441524  37.61002319406495  14.52756564508286
  389  389  Swi6  14.828132912248194  45.48841002860457  3.4463368671817145
  390  390  Swi6  33.03968131749192  27.109606618005742  31.714863552346742
  391  391  Swi6  3.473775988890169  39.08031909049837  42.79424592617256
  392  392  Swi6  8.73236588575785  33.43575596980181  2.4200102937024
  393  393  Swi6  46.540175445079164  17.261062550824416  34.083303657185645
  394  394  Swi6  2.288844729086068  12.216659312525792  25.180893364856924
  395  395  Swi6  5.919556341044747  18.75414621502919  19.275280849732486
  396  396  Swi6  20.007920688970163  10.13331229419418  47.26433185278647
  397  397  Swi6  35.932382815138354  26.233444280190167  31.375433474935033
  398  398  Swi6  43.148434084299296  5.467981604193305  3.121048420614121
  399  399  Swi6  18.170122876581562  4.171816310290925  16.650342442738612
  400  400  Swi6  40.43996010987675  10.681788723656698  16.979954801991617
  401  401  Swi6  30.336436652044867  47.00174204245091  18.53949032390022
  402  402  Swi6  14.872156333845652  2.3841939712286404  37.29660446656393
  403  403  Swi6  48.16263832907458  47.41611920736823  4.537000715440541
  404  404  Swi6  7.989864921383713  36.876642620985  23.89672290745998
  405  405  Swi6  44.33284788500857  26.1749112136582  33.58602437625002
  406  406  Swi6  41.48021774533834  10.216226070573265  43.327103869627386
  407  407  Swi6  43.54762390943106  48.50987064075119  4.7456195185737595
  408  408  Swi6  14.848001801143454  37.0833934798571  40.08888707618394
  409  409  Swi6  37.523623492343916  23.70806820711233  14.256469175755415
  410  410  Swi6  38.776106830166874  16.89091625506981  42.38266219831332
  411  411  Swi6  13.625212505482605  11.252882040748174  5.3132331788106155
  412  412  Swi6  19.841355028931  14.770722198812575  3.7413865105428807
  413  413  Swi6  37.31797659391725  48.296812056674625  9.474875217691192
  414  414  Swi6  36.26494889196112  32.42730676392368  36.74959721054748
  415  415  Swi6  25.877876740734326  33.48441646832572  15.91228386572799
  416  416  Swi6  39.09279897694324  3.2387423316766815  44.97614329278133
  417  417  Swi6  41.25264615540363  37.251605193614665  44.11917418110876
  418  418  Swi6  43.12484369299222  45.129258829372695  16.078811564625028
  419  419  Swi6  12.545827030367676  42.26376387679333  11.200013794892127
  420  420  Swi6  9.178463321555325  13.949426072462352  36.3517544610339
  421  421  Swi6  23.254208011388258  49.21445154895761  12.468580525293142
  422  422  Swi6  25.166757510046935  31.594353639802442  10.199288221194248
  423  423  Swi6  22.51780042037847  14.981000148322178  30.881823895677243
  424  424  Swi6  47.724360694652304  2.5722509020828785  36.556777587861006
  425  425  Swi6  13.618979096022914  35.12245700538107  15.053211245451205
  426  426  Swi6  40.89579388437022  38.35698768332911  38.826529895523855
  427  427  Swi6  20.915983685615434  19.0978350719439  4.363353902819732
  428  428  Swi6  16.498926491821337  36.42087963700991  2.3566376315794404
  429  429  Swi6  3.2161711285709544  21.192271923867533  1.1897477203694031
  430  430  Swi6  2.190929577671676  44.214212635271565  37.73117885208465
  431  431  Swi6  14.895031104013217  11.883639153276208  25.390716429288407
  432  432  Swi6  17.021335578294913  45.77035958259653  44.69101001060408
  433  433  Swi6  2.8264966797032662  19.827006406229735  47.7919493669049
  434  434  Swi6  41.64830207529852  28.102918959372  10.056656772286988
  435  435  Swi6  28.75830647714028  26.794515196678603  44.33888075706879
  436  436  Swi6  8.26147273802627  31.307548473941186  36.31119404644933